
Host: TUF

Timers On : Wed Jun 11 15:17:31 2025
Timers Off: Wed Jun 11 15:17:32 2025

Wall Time:        1.66 seconds

                                                       Time (seconds)
Module                                       User      System        Wall        Calls

--------------------------------------------------------------------------------------

**************************************************************************************

Host: TUF

Timers On : Wed Jun 11 15:18:04 2025
Timers Off: Wed Jun 11 15:18:05 2025

Wall Time:        1.20 seconds

                                                       Time (seconds)
Module                                       User      System        Wall        Calls

--------------------------------------------------------------------------------------

**************************************************************************************

Host: TUF

Timers On : Wed Jun 11 15:25:18 2025
Timers Off: Wed Jun 11 15:25:20 2025

Wall Time:        1.52 seconds

                                                       Time (seconds)
Module                                       User      System        Wall        Calls

--------------------------------------------------------------------------------------

**************************************************************************************

Host: TUF

Timers On : Wed Jun 18 12:04:52 2025
Timers Off: Wed Jun 18 12:04:54 2025

Wall Time:        1.83 seconds

                                                       Time (seconds)
Module                                       User      System        Wall        Calls

--------------------------------------------------------------------------------------

**************************************************************************************

Host: TUF

Timers On : Wed Jun 18 13:47:58 2025
Timers Off: Wed Jun 18 13:47:59 2025

Wall Time:        1.58 seconds

                                                       Time (seconds)
Module                                       User      System        Wall        Calls

--------------------------------------------------------------------------------------

**************************************************************************************

Host: TUF

Timers On : Wed Jun 18 14:11:46 2025
Timers Off: Wed Jun 18 14:11:47 2025

Wall Time:        1.28 seconds

                                                       Time (seconds)
Module                                       User      System        Wall        Calls

--------------------------------------------------------------------------------------

**************************************************************************************

Host: TUF

Timers On : Wed Jun 18 14:11:51 2025
Timers Off: Wed Jun 18 14:11:53 2025

Wall Time:        1.29 seconds

                                                       Time (seconds)
Module                                       User      System        Wall        Calls

--------------------------------------------------------------------------------------

**************************************************************************************

Host: TUF

Timers On : Wed Jun 18 14:18:12 2025
Timers Off: Wed Jun 18 14:18:14 2025

Wall Time:        1.25 seconds

                                                       Time (seconds)
Module                                       User      System        Wall        Calls

--------------------------------------------------------------------------------------

**************************************************************************************

Host: TUF

Timers On : Thu Jul 17 13:08:32 2025
Timers Off: Thu Jul 17 13:08:32 2025

Wall Time:        0.40 seconds

                                                       Time (seconds)
Module                                       User      System        Wall        Calls

--------------------------------------------------------------------------------------

**************************************************************************************

Host: TUF

Timers On : Thu Jul 17 13:10:27 2025
Timers Off: Thu Jul 17 13:10:27 2025

Wall Time:        0.40 seconds

                                                       Time (seconds)
Module                                       User      System        Wall        Calls

--------------------------------------------------------------------------------------

**************************************************************************************

Host: TUF

Timers On : Thu Jul 17 13:11:17 2025
Timers Off: Thu Jul 17 13:11:18 2025

Wall Time:        0.49 seconds

                                                       Time (seconds)
Module                                       User      System        Wall        Calls

--------------------------------------------------------------------------------------

**************************************************************************************

Host: TUF

Timers On : Thu Jul 17 13:12:21 2025
Timers Off: Thu Jul 17 13:12:22 2025

Wall Time:        0.44 seconds

                                                       Time (seconds)
Module                                       User      System        Wall        Calls

--------------------------------------------------------------------------------------

**************************************************************************************

Host: TUF

Timers On : Thu Jul 17 13:13:12 2025
Timers Off: Thu Jul 17 13:13:12 2025

Wall Time:        0.42 seconds

                                                       Time (seconds)
Module                                       User      System        Wall        Calls

--------------------------------------------------------------------------------------

**************************************************************************************

Host: TUF

Timers On : Fri Jul 18 14:19:53 2025
Timers Off: Fri Jul 18 16:27:11 2025

Wall Time:     7638.17 seconds

                                                       Time (seconds)
Module                                       User      System        Wall        Calls

--------------------------------------------------------------------------------------

**************************************************************************************
