
    -----------------------------------------------------------------------
          Psi4: An Open-Source Ab Initio Electronic Structure Package
                               Psi4 1.10a1.dev76 

                         Git: Rev {master} 2b9265a 


    D. G. A. Smith, L. A. Burns, A. C. Simmonett, R. M. Parrish,
    M. C. Schieber, R. Galvelis, P. Kraus, H. Kruse, R. Di Remigio,
    A. Alenaizan, A. M. James, S. Lehtola, J. P. Misiewicz, M. Scheurer,
    R. A. Shaw, J. B. Schriber, Y. Xie, Z. L. Glick, D. A. Sirianni,
    J. S. O'Brien, J. M. Waldrop, A. Kumar, E. G. Hohenstein,
    B. P. Pritchard, B. R. Brooks, H. F. Schaefer III, A. Yu. Sokolov,
    K. Patkowski, A. E. DePrince III, U. Bozkaya, R. A. King,
    F. A. Evangelista, J. M. Turney, T. D. Crawford, C. D. Sherrill,
    J. Chem. Phys. 152(18) 184108 (2020). https://doi.org/10.1063/5.0006002

                            Additional Code Authors
    E. T. Seidl, C. L. Janssen, E. F. Valeev, M. L. Leininger,
    J. F. Gonthier, R. M. Richard, H. R. McAlexander, M. Saitow, X. Wang,
    P. Verma, M. H. Lechner, A. Jiang, S. Behnle, A. G. Heide,
    M. F. Herbst, and D. L. Poole

             Previous Authors, Complete List of Code Contributors,
                       and Citations for Specific Modules
    https://github.com/psi4/psi4/blob/master/codemeta.json
    https://github.com/psi4/psi4/graphs/contributors
    http://psicode.org/psi4manual/master/introduction.html#citing-psifour

    -----------------------------------------------------------------------


    Psi4 started on: Thursday, 17 July 2025 05:02PM

    Process ID: 52806
    Host:       TUF
    PSIDATADIR: /usr/local/psi4/share/psi4
    Memory:     500.0 MiB
    Threads:    1
    
  ==> Input File <==

--------------------------------------------------------------------------
# Any line starting with the # character is a comment line
#! Sample HF/cc-pVDZ H2O computation

memory 600 mb   
import scf_lcom
import psi4

molecule h2o {
  O 
  H 1 0.96
  H 1 0.96 2 104.5
}

set basis cc-pVDZ

func1 = {
  "name": "func1",
  "coef": 1.0,
  "lcom_functionals":{
    "B3LYP": 1.0
  }
}

func2 = {
  "name": "func2",
  "coef": 1.0,
  "lcom_functionals":{
    "BLYP": 1.0
  }
}

dft_functional1 = {
  "name": "test",
  "lcom_functionals":{
      "func1": func1, 
      "func2": func2
 }
}


dft_functional2 = {
  "name": "test",
  "lcom_functionals":{
      "B3LYP": 1.0, 
      "BLYP": 1.0
  }
}

set scf_lcom {
  print 1
}

print(psi4.driver.procedures['energy']['scf_lcom'])
E1 = energy('scf_lcom', dft_functional=dft_functional1, decompose_xc=True)
print(psi4.variable('DFT TOTAL ENERGY'))

E1 = energy('scf_lcom', dft_functional=dft_functional2, decompose_xc=True)
print(psi4.variable('DFT TOTAL ENERGY'))

E2 = energy('scf', dft_functional="B3LYP")
E3 = energy('scf', dft_functional="BLYP")--------------------------------------------------------------------------

  Memory set to 572.205 MiB by Python driver.

Scratch directory: /home/kenrickmh/CHEM/psi4-scratch/
   => Libint2 <=

    Primary   basis highest AM E, G, H:  5, 4, 3
    Auxiliary basis highest AM E, G, H:  6, 5, 4
    Onebody   basis highest AM E, G, H:  6, 5, 4
    Solid Harmonics ordering:            Gaussian

*** tstart() called on TUF
*** at Thu Jul 17 17:02:48 2025

   => Loading Basis Set <=

    Name: CC-PVDZ
    Role: ORBITAL
    Keyword: BASIS
    atoms 1   entry O          line   198 file /usr/local/psi4/share/psi4/basis/cc-pvdz.gbs 
    atoms 2-3 entry H          line    22 file /usr/local/psi4/share/psi4/basis/cc-pvdz.gbs 


         ---------------------------------------------------------
                                   SCF
               by Justin Turney, Rob Parrish, Andy Simmonett
                          and Daniel G. A. Smith
                              RKS Reference
                        1 Threads,    572 MiB Core
         ---------------------------------------------------------

  ==> Geometry <==

    Molecular point group: c2v
    Full point group: C2v

    Geometry (in Angstrom), charge = 0, multiplicity = 1:

       Center              X                  Y                   Z               Mass       
    ------------   -----------------  -----------------  -----------------  -----------------
         O            0.000000000000     0.000000000000    -0.065775570547    15.994914619570
         H            0.000000000000    -0.759061990794     0.521953018286     1.007825032230
         H            0.000000000000     0.759061990794     0.521953018286     1.007825032230

  Running in c2v symmetry.

  Rotational constants: A =     27.26297  B =     14.51533  C =      9.47217 [cm^-1]
  Rotational constants: A = 817323.21126  B = 435158.60141  C = 283968.37536 [MHz]
  Nuclear repulsion =    9.168193296424349

  Charge       = 0
  Multiplicity = 1
  Electrons    = 10
  Nalpha       = 5
  Nbeta        = 5

  ==> Algorithm <==

  SCF Algorithm Type is DF.
  DIIS enabled.
  MOM disabled.
  Fractional occupation disabled.
  Guess Type is SAD.
  Energy threshold   = 1.00e-08
  Density threshold  = 1.00e-08
  Integral threshold = 1.00e-12

  ==> Primary Basis <==

  Basis Set: CC-PVDZ
    Blend: CC-PVDZ
    Number of shells: 12
    Number of basis functions: 24
    Number of Cartesian functions: 25
    Spherical Harmonics?: true
    Max angular momentum: 2

  ==> DFT Potential <==

   => LibXC <=

    Version 7.0.0
    S. Lehtola, C. Steigemann, M. J.T. Oliveira, and M. A.L. Marques.,  SoftwareX 7, 1–5 (2018) (10.1016/j.softx.2017.11.002)

   => Composite Functional: TEST <= 



    Deriv               =              1
    GGA                 =           TRUE
    Meta                =          FALSE

    Exchange Hybrid     =           TRUE
    MP2 Hybrid          =          FALSE

   => Exchange Functionals <=

    0.0800         XC_LDA_X
    1.7200     XC_GGA_X_B88

   => Exact (HF) Exchange <=

    0.2000               HF 

   => Correlation Functionals <=

    0.1900   XC_LDA_C_VWN_RPA
    1.8100     XC_GGA_C_LYP

   => LibXC Density Thresholds  <==

    XC_LDA_C_VWN_RPA:  1.00E-15 
    XC_GGA_C_LYP:  1.00E-14 
    XC_LDA_X:  1.00E-15 
    XC_GGA_X_B88:  1.00E-15 

   => Molecular Quadrature <=

    Radial Scheme          =       TREUTLER
    Pruning Scheme         =           NONE
    Nuclear Scheme         =       TREUTLER

    Blocking Scheme        =         OCTREE
    BS radius alpha        =              1
    Pruning alpha          =              1
    Radial Points          =             75
    Spherical Points       =            302
    Total Points           =          66186
    Total Blocks           =            554
    Max Points             =            256
    Max Functions          =             24
    Weights Tolerance      =       1.00E-15

   => Loading Basis Set <=

    Name: (CC-PVDZ AUX)
    Role: JKFIT
    Keyword: DF_BASIS_SCF
    atoms 1   entry O          line   221 file /usr/local/psi4/share/psi4/basis/cc-pvdz-jkfit.gbs 
    atoms 2-3 entry H          line    51 file /usr/local/psi4/share/psi4/basis/cc-pvdz-jkfit.gbs 

  ==> Integral Setup <==

  DFHelper Memory: AOs need 0.001 GiB; user supplied 0.373 GiB. 
  SCF_SUBTYPE=INCORE selected. In-core MEM_DF algorithm will be used.
  Using in-core AOs.

  ==> MemDFJK: Density-Fitted J/K Matrices <==

    J tasked:                   Yes
    K tasked:                   Yes
    wK tasked:                   No
    OpenMP threads:               1
    Memory [MiB]:               381
    Algorithm:                 Core
    Schwarz Cutoff:           1E-12
    Mask sparsity (%):       0.0000
    Fitting Condition:        1E-10

   => Auxiliary Basis Set <=

  Basis Set: (CC-PVDZ AUX)
    Blend: CC-PVDZ-JKFIT
    Number of shells: 42
    Number of basis functions: 116
    Number of Cartesian functions: 131
    Spherical Harmonics?: true
    Max angular momentum: 3

  Cached 100.0% of DFT collocation blocks in 0.046 [GiB].

  Minimum eigenvalue in the overlap matrix is 3.2707806872E-02.
  Reciprocal condition number of the overlap matrix is 1.0389988226E-02.
    Using symmetric orthogonalization.

  ==> Pre-Iterations <==

  SCF Guess: Superposition of Atomic Densities via on-the-fly atomic UHF (no occupation information).

   -------------------------
    Irrep   Nso     Nmo    
   -------------------------
     A1        11      11 
     A2         2       2 
     B1         4       4 
     B2         7       7 
   -------------------------
    Total      24      24
   -------------------------

  ==> Iterations <==

                           Total Energy        Delta E     RMS |[F,P]|

   @DF-RKS iter SAD:   -86.43889934898620   -8.64389e+01   0.00000e+00 
   @DF-RKS iter   1:   -85.89486199342014    5.44037e-01   4.50764e-02 ADIIS/DIIS
   @DF-RKS iter   2:   -85.91785048181248   -2.29885e-02   4.27723e-02 ADIIS/DIIS
   @DF-RKS iter   3:   -86.04945761861842   -1.31607e-01   2.57679e-03 ADIIS/DIIS
   @DF-RKS iter   4:   -86.05003858664062   -5.80968e-04   3.45120e-04 ADIIS/DIIS
   @DF-RKS iter   5:   -86.05004833748146   -9.75084e-06   5.25079e-05 DIIS
   @DF-RKS iter   6:   -86.05004856819784   -2.30716e-07   2.38315e-06 DIIS
   @DF-RKS iter   7:   -86.05004856913854   -9.40702e-10   1.96055e-07 DIIS
   @DF-RKS iter   8:   -86.05004856914229   -3.75167e-12   1.55504e-08 DIIS
   @DF-RKS iter   9:   -86.05004856914229    0.00000e+00   8.20775e-10 DIIS
  Energy and wave function converged.


  ==> Post-Iterations <==

   Electrons on quadrature grid:
      Ntotal   =   10.0000001294 ; deviation = 1.294e-07 

    Orbital Energies [Eh]
    ---------------------

    Doubly Occupied:                                                      

       1A1   -21.431553     2A1    -1.501396     1B2    -0.958448  
       3A1    -0.817170     1B1    -0.743863  

    Virtual:                                                              

       4A1    -0.176216     2B2    -0.110090     3B2     0.258069  
       5A1     0.285912     2B1     0.573601     6A1     0.579602  
       4B2     0.721133     7A1     0.897757     1A2     0.912000  
       3B1     1.118240     8A1     1.261799     5B2     1.370047  
       6B2     1.730989     9A1     1.754196     4B1     2.505327  
       2A2     2.550489    10A1     2.722814    11A1     3.038911  
       7B2     3.315722  

    Final Occupation by Irrep:
             A1    A2    B1    B2 
    DOCC [     3,    0,    1,    1 ]
    NA   [     3,    0,    1,    1 ]
    NB   [     3,    0,    1,    1 ]

  @DF-RKS Final Energy:   -86.05004856914229

   => Energetics <=

    Nuclear Repulsion Energy =              9.1681932964243487
    One-Electron Energy =                -126.6634460140884073
    Two-Electron Energy =                  49.4001671892086449
    DFT Exchange-Correlation Energy =     -17.9549630406868737
    Empirical Dispersion Energy =           0.0000000000000000
    VV10 Nonlocal Energy =                  0.0000000000000000
    Total Energy =                        -86.0500485691422909

Computation Completed


Properties will be evaluated at   0.000000,   0.000000,   0.000000 [a0]

Properties computed using the SCF density matrix


 Multipole Moments:

 ------------------------------------------------------------------------------------
     Multipole            Electronic (a.u.)      Nuclear  (a.u.)        Total (a.u.)
 ------------------------------------------------------------------------------------

 L = 1.  Multiply by 2.5417464519 to convert [e a0] to [Debye]
 Dipole X            :          0.0000000            0.0000000            0.0000000
 Dipole Y            :          0.0000000            0.0000000            0.0000000
 Dipole Z            :         -0.0584307            0.9783140            0.9198833
 Magnitude           :                                                    0.9198833

 ------------------------------------------------------------------------------------

*** tstop() called on TUF at Thu Jul 17 17:02:49 2025
Module time:
	user time   =       1.12 seconds =       0.02 minutes
	system time =       0.10 seconds =       0.00 minutes
	total time  =          1 seconds =       0.02 minutes
Total time:
	user time   =       1.12 seconds =       0.02 minutes
	system time =       0.10 seconds =       0.00 minutes
	total time  =          1 seconds =       0.02 minutes

Scratch directory: /home/kenrickmh/CHEM/psi4-scratch/
   => Libint2 <=

    Primary   basis highest AM E, G, H:  5, 4, 3
    Auxiliary basis highest AM E, G, H:  6, 5, 4
    Onebody   basis highest AM E, G, H:  6, 5, 4
    Solid Harmonics ordering:            Gaussian

*** tstart() called on TUF
*** at Thu Jul 17 17:02:49 2025

   => Loading Basis Set <=

    Name: CC-PVDZ
    Role: ORBITAL
    Keyword: BASIS
    atoms 1   entry O          line   198 file /usr/local/psi4/share/psi4/basis/cc-pvdz.gbs 
    atoms 2-3 entry H          line    22 file /usr/local/psi4/share/psi4/basis/cc-pvdz.gbs 


         ---------------------------------------------------------
                                   SCF
               by Justin Turney, Rob Parrish, Andy Simmonett
                          and Daniel G. A. Smith
                              RKS Reference
                        1 Threads,    572 MiB Core
         ---------------------------------------------------------

  ==> Geometry <==

    Molecular point group: c2v
    Full point group: C2v

    Geometry (in Angstrom), charge = 0, multiplicity = 1:

       Center              X                  Y                   Z               Mass       
    ------------   -----------------  -----------------  -----------------  -----------------
         O            0.000000000000     0.000000000000    -0.065775570547    15.994914619570
         H            0.000000000000    -0.759061990794     0.521953018286     1.007825032230
         H            0.000000000000     0.759061990794     0.521953018286     1.007825032230

  Running in c2v symmetry.

  Rotational constants: A =     27.26297  B =     14.51533  C =      9.47217 [cm^-1]
  Rotational constants: A = 817323.21126  B = 435158.60141  C = 283968.37536 [MHz]
  Nuclear repulsion =    9.168193296424349

  Charge       = 0
  Multiplicity = 1
  Electrons    = 10
  Nalpha       = 5
  Nbeta        = 5

  ==> Algorithm <==

  SCF Algorithm Type is DF.
  DIIS enabled.
  MOM disabled.
  Fractional occupation disabled.
  Guess Type is SAD.
  Energy threshold   = 1.00e-08
  Density threshold  = 1.00e-08
  Integral threshold = 1.00e-12

  ==> Primary Basis <==

  Basis Set: CC-PVDZ
    Blend: CC-PVDZ
    Number of shells: 12
    Number of basis functions: 24
    Number of Cartesian functions: 25
    Spherical Harmonics?: true
    Max angular momentum: 2

  ==> DFT Potential <==

   => LibXC <=

    Version 7.0.0
    S. Lehtola, C. Steigemann, M. J.T. Oliveira, and M. A.L. Marques.,  SoftwareX 7, 1–5 (2018) (10.1016/j.softx.2017.11.002)

   => Composite Functional: TEST <= 



    Deriv               =              1
    GGA                 =           TRUE
    Meta                =          FALSE

    Exchange Hybrid     =           TRUE
    MP2 Hybrid          =          FALSE

   => Exchange Functionals <=

    0.0800         XC_LDA_X
    1.7200     XC_GGA_X_B88

   => Exact (HF) Exchange <=

    0.2000               HF 

   => Correlation Functionals <=

    0.1900   XC_LDA_C_VWN_RPA
    1.8100     XC_GGA_C_LYP

   => LibXC Density Thresholds  <==

    XC_LDA_C_VWN_RPA:  1.00E-15 
    XC_GGA_C_LYP:  1.00E-14 
    XC_LDA_X:  1.00E-15 
    XC_GGA_X_B88:  1.00E-15 

   => Molecular Quadrature <=

    Radial Scheme          =       TREUTLER
    Pruning Scheme         =           NONE
    Nuclear Scheme         =       TREUTLER

    Blocking Scheme        =         OCTREE
    BS radius alpha        =              1
    Pruning alpha          =              1
    Radial Points          =             75
    Spherical Points       =            302
    Total Points           =          66186
    Total Blocks           =            554
    Max Points             =            256
    Max Functions          =             24
    Weights Tolerance      =       1.00E-15

   => Loading Basis Set <=

    Name: (CC-PVDZ AUX)
    Role: JKFIT
    Keyword: DF_BASIS_SCF
    atoms 1   entry O          line   221 file /usr/local/psi4/share/psi4/basis/cc-pvdz-jkfit.gbs 
    atoms 2-3 entry H          line    51 file /usr/local/psi4/share/psi4/basis/cc-pvdz-jkfit.gbs 

  ==> Integral Setup <==

  DFHelper Memory: AOs need 0.001 GiB; user supplied 0.373 GiB. 
  SCF_SUBTYPE=INCORE selected. In-core MEM_DF algorithm will be used.
  Using in-core AOs.

  ==> MemDFJK: Density-Fitted J/K Matrices <==

    J tasked:                   Yes
    K tasked:                   Yes
    wK tasked:                   No
    OpenMP threads:               1
    Memory [MiB]:               381
    Algorithm:                 Core
    Schwarz Cutoff:           1E-12
    Mask sparsity (%):       0.0000
    Fitting Condition:        1E-10

   => Auxiliary Basis Set <=

  Basis Set: (CC-PVDZ AUX)
    Blend: CC-PVDZ-JKFIT
    Number of shells: 42
    Number of basis functions: 116
    Number of Cartesian functions: 131
    Spherical Harmonics?: true
    Max angular momentum: 3

  Cached 100.0% of DFT collocation blocks in 0.046 [GiB].

  Minimum eigenvalue in the overlap matrix is 3.2707806872E-02.
  Reciprocal condition number of the overlap matrix is 1.0389988226E-02.
    Using symmetric orthogonalization.

  ==> Pre-Iterations <==

  SCF Guess: Superposition of Atomic Densities via on-the-fly atomic UHF (no occupation information).

   -------------------------
    Irrep   Nso     Nmo    
   -------------------------
     A1        11      11 
     A2         2       2 
     B1         4       4 
     B2         7       7 
   -------------------------
    Total      24      24
   -------------------------

  ==> Iterations <==

                           Total Energy        Delta E     RMS |[F,P]|

   @DF-RKS iter SAD:   -86.43889934898620   -8.64389e+01   0.00000e+00 
   @DF-RKS iter   1:   -85.89486199342014    5.44037e-01   4.50764e-02 ADIIS/DIIS
   @DF-RKS iter   2:   -85.91785048181248   -2.29885e-02   4.27723e-02 ADIIS/DIIS
   @DF-RKS iter   3:   -86.04945761861842   -1.31607e-01   2.57679e-03 ADIIS/DIIS
   @DF-RKS iter   4:   -86.05003858664062   -5.80968e-04   3.45120e-04 ADIIS/DIIS
   @DF-RKS iter   5:   -86.05004833748146   -9.75084e-06   5.25079e-05 DIIS
   @DF-RKS iter   6:   -86.05004856819784   -2.30716e-07   2.38315e-06 DIIS
   @DF-RKS iter   7:   -86.05004856913854   -9.40702e-10   1.96055e-07 DIIS
   @DF-RKS iter   8:   -86.05004856914229   -3.75167e-12   1.55504e-08 DIIS
   @DF-RKS iter   9:   -86.05004856914229    0.00000e+00   8.20775e-10 DIIS
  Energy and wave function converged.


  ==> Post-Iterations <==

   Electrons on quadrature grid:
      Ntotal   =   10.0000001294 ; deviation = 1.294e-07 

    Orbital Energies [Eh]
    ---------------------

    Doubly Occupied:                                                      

       1A1   -21.431553     2A1    -1.501396     1B2    -0.958448  
       3A1    -0.817170     1B1    -0.743863  

    Virtual:                                                              

       4A1    -0.176216     2B2    -0.110090     3B2     0.258069  
       5A1     0.285912     2B1     0.573601     6A1     0.579602  
       4B2     0.721133     7A1     0.897757     1A2     0.912000  
       3B1     1.118240     8A1     1.261799     5B2     1.370047  
       6B2     1.730989     9A1     1.754196     4B1     2.505327  
       2A2     2.550489    10A1     2.722814    11A1     3.038911  
       7B2     3.315722  

    Final Occupation by Irrep:
             A1    A2    B1    B2 
    DOCC [     3,    0,    1,    1 ]
    NA   [     3,    0,    1,    1 ]
    NB   [     3,    0,    1,    1 ]

  @DF-RKS Final Energy:   -86.05004856914229

   => Energetics <=

    Nuclear Repulsion Energy =              9.1681932964243487
    One-Electron Energy =                -126.6634460140884073
    Two-Electron Energy =                  49.4001671892086449
    DFT Exchange-Correlation Energy =     -17.9549630406868737
    Empirical Dispersion Energy =           0.0000000000000000
    VV10 Nonlocal Energy =                  0.0000000000000000
    Total Energy =                        -86.0500485691422909

Computation Completed


Properties will be evaluated at   0.000000,   0.000000,   0.000000 [a0]

Properties computed using the SCF density matrix


 Multipole Moments:

 ------------------------------------------------------------------------------------
     Multipole            Electronic (a.u.)      Nuclear  (a.u.)        Total (a.u.)
 ------------------------------------------------------------------------------------

 L = 1.  Multiply by 2.5417464519 to convert [e a0] to [Debye]
 Dipole X            :          0.0000000            0.0000000            0.0000000
 Dipole Y            :          0.0000000            0.0000000            0.0000000
 Dipole Z            :         -0.0584307            0.9783140            0.9198833
 Magnitude           :                                                    0.9198833

 ------------------------------------------------------------------------------------

*** tstop() called on TUF at Thu Jul 17 17:02:50 2025
Module time:
	user time   =       1.03 seconds =       0.02 minutes
	system time =       0.03 seconds =       0.00 minutes
	total time  =          1 seconds =       0.02 minutes
Total time:
	user time   =       2.23 seconds =       0.04 minutes
	system time =       0.13 seconds =       0.00 minutes
	total time  =          2 seconds =       0.03 minutes

Scratch directory: /home/kenrickmh/CHEM/psi4-scratch/
   => Libint2 <=

    Primary   basis highest AM E, G, H:  5, 4, 3
    Auxiliary basis highest AM E, G, H:  6, 5, 4
    Onebody   basis highest AM E, G, H:  6, 5, 4
    Solid Harmonics ordering:            Gaussian

*** tstart() called on TUF
*** at Thu Jul 17 17:02:50 2025

   => Loading Basis Set <=

    Name: CC-PVDZ
    Role: ORBITAL
    Keyword: BASIS
    atoms 1   entry O          line   198 file /usr/local/psi4/share/psi4/basis/cc-pvdz.gbs 
    atoms 2-3 entry H          line    22 file /usr/local/psi4/share/psi4/basis/cc-pvdz.gbs 


         ---------------------------------------------------------
                                   SCF
               by Justin Turney, Rob Parrish, Andy Simmonett
                          and Daniel G. A. Smith
                              RKS Reference
                        1 Threads,    572 MiB Core
         ---------------------------------------------------------

  ==> Geometry <==

    Molecular point group: c2v
    Full point group: C2v

    Geometry (in Angstrom), charge = 0, multiplicity = 1:

       Center              X                  Y                   Z               Mass       
    ------------   -----------------  -----------------  -----------------  -----------------
         O            0.000000000000     0.000000000000    -0.065775570547    15.994914619570
         H            0.000000000000    -0.759061990794     0.521953018286     1.007825032230
         H            0.000000000000     0.759061990794     0.521953018286     1.007825032230

  Running in c2v symmetry.

  Rotational constants: A =     27.26297  B =     14.51533  C =      9.47217 [cm^-1]
  Rotational constants: A = 817323.21126  B = 435158.60141  C = 283968.37536 [MHz]
  Nuclear repulsion =    9.168193296424349

  Charge       = 0
  Multiplicity = 1
  Electrons    = 10
  Nalpha       = 5
  Nbeta        = 5

  ==> Algorithm <==

  SCF Algorithm Type is DF.
  DIIS enabled.
  MOM disabled.
  Fractional occupation disabled.
  Guess Type is SAD.
  Energy threshold   = 1.00e-06
  Density threshold  = 1.00e-06
  Integral threshold = 1.00e-12

  ==> Primary Basis <==

  Basis Set: CC-PVDZ
    Blend: CC-PVDZ
    Number of shells: 12
    Number of basis functions: 24
    Number of Cartesian functions: 25
    Spherical Harmonics?: true
    Max angular momentum: 2

  ==> DFT Potential <==

   => LibXC <=

    Version 7.0.0
    S. Lehtola, C. Steigemann, M. J.T. Oliveira, and M. A.L. Marques.,  SoftwareX 7, 1–5 (2018) (10.1016/j.softx.2017.11.002)

   => Composite Functional: B3LYP <= 

    B3LYP Hyb-GGA Exchange-Correlation Functional

    P. J. Stephens, F. J. Devlin, C. F. Chabalowski, and M. J. Frisch.,  J. Phys. Chem. 98, 11623 (1994) (10.1021/j100096a001)

    Deriv               =              1
    GGA                 =           TRUE
    Meta                =          FALSE

    Exchange Hybrid     =           TRUE
    MP2 Hybrid          =          FALSE

   => Exchange Functionals <=

    0.0800   Slater exchange
    0.7200         Becke 88

   => Exact (HF) Exchange <=

    0.2000               HF 

   => Correlation Functionals <=

    0.1900   Vosko, Wilk & Nusair (VWN5_RPA)
    0.8100   Lee, Yang & Parr

   => LibXC Density Thresholds  <==

    XC_HYB_GGA_XC_B3LYP:  1.00E-15 

   => Molecular Quadrature <=

    Radial Scheme          =       TREUTLER
    Pruning Scheme         =           NONE
    Nuclear Scheme         =       TREUTLER

    Blocking Scheme        =         OCTREE
    BS radius alpha        =              1
    Pruning alpha          =              1
    Radial Points          =             75
    Spherical Points       =            302
    Total Points           =          66186
    Total Blocks           =            554
    Max Points             =            256
    Max Functions          =             24
    Weights Tolerance      =       1.00E-15

   => Loading Basis Set <=

    Name: (CC-PVDZ AUX)
    Role: JKFIT
    Keyword: DF_BASIS_SCF
    atoms 1   entry O          line   221 file /usr/local/psi4/share/psi4/basis/cc-pvdz-jkfit.gbs 
    atoms 2-3 entry H          line    51 file /usr/local/psi4/share/psi4/basis/cc-pvdz-jkfit.gbs 

  ==> Integral Setup <==

  DFHelper Memory: AOs need 0.001 GiB; user supplied 0.373 GiB. 
  SCF_SUBTYPE=INCORE selected. In-core MEM_DF algorithm will be used.
  Using in-core AOs.

  ==> MemDFJK: Density-Fitted J/K Matrices <==

    J tasked:                   Yes
    K tasked:                   Yes
    wK tasked:                   No
    OpenMP threads:               1
    Memory [MiB]:               381
    Algorithm:                 Core
    Schwarz Cutoff:           1E-12
    Mask sparsity (%):       0.0000
    Fitting Condition:        1E-10

   => Auxiliary Basis Set <=

  Basis Set: (CC-PVDZ AUX)
    Blend: CC-PVDZ-JKFIT
    Number of shells: 42
    Number of basis functions: 116
    Number of Cartesian functions: 131
    Spherical Harmonics?: true
    Max angular momentum: 3

  Cached 100.0% of DFT collocation blocks in 0.046 [GiB].

  Minimum eigenvalue in the overlap matrix is 3.2707806872E-02.
  Reciprocal condition number of the overlap matrix is 1.0389988226E-02.
    Using symmetric orthogonalization.

  ==> Pre-Iterations <==

  SCF Guess: Superposition of Atomic Densities via on-the-fly atomic UHF (no occupation information).

   -------------------------
    Irrep   Nso     Nmo    
   -------------------------
     A1        11      11 
     A2         2       2 
     B1         4       4 
     B2         7       7 
   -------------------------
    Total      24      24
   -------------------------

  ==> Iterations <==

                           Total Energy        Delta E     RMS |[F,P]|

   @DF-RKS iter SAD:   -76.65551216820791   -7.66555e+01   0.00000e+00 
   @DF-RKS iter   1:   -76.37273762665465    2.82775e-01   2.24605e-02 ADIIS/DIIS
   @DF-RKS iter   2:   -76.38420542063150   -1.14678e-02   2.34788e-02 ADIIS/DIIS
   @DF-RKS iter   3:   -76.41873747928025   -3.45321e-02   5.07439e-03 ADIIS/DIIS
   @DF-RKS iter   4:   -76.42039700595336   -1.65953e-03   9.63296e-04 ADIIS/DIIS
   @DF-RKS iter   5:   -76.42045923605602   -6.22301e-05   2.80417e-05 DIIS
   @DF-RKS iter   6:   -76.42045929200097   -5.59450e-08   2.05667e-06 DIIS
   @DF-RKS iter   7:   -76.42045929231033   -3.09356e-10   4.62341e-08 DIIS
  Energy and wave function converged.


  ==> Post-Iterations <==

   Electrons on quadrature grid:
      Ntotal   =   10.0000001670 ; deviation = 1.670e-07 

    Orbital Energies [Eh]
    ---------------------

    Doubly Occupied:                                                      

       1A1   -19.122451     2A1    -0.994149     1B2    -0.513083  
       3A1    -0.364496     1B1    -0.287840  

    Virtual:                                                              

       4A1     0.051564     2B2     0.127420     3B2     0.559891  
       5A1     0.612470     6A1     0.901489     2B1     0.918849  
       4B2     0.995061     7A1     1.204813     1A2     1.232830  
       3B1     1.427077     8A1     1.593342     5B2     1.668944  
       6B2     2.111796     9A1     2.148955     4B1     2.919858  
       2A2     2.964739    10A1     3.130747    11A1     3.465609  
       7B2     3.734956  

    Final Occupation by Irrep:
             A1    A2    B1    B2 
    DOCC [     3,    0,    1,    1 ]
    NA   [     3,    0,    1,    1 ]
    NB   [     3,    0,    1,    1 ]

  @DF-RKS Final Energy:   -76.42045929231033

   => Energetics <=

    Nuclear Repulsion Energy =              9.1681932964243487
    One-Electron Energy =                -123.1752818326948500
    Two-Electron Energy =                  45.1626817688927531
    DFT Exchange-Correlation Energy =      -7.5760525249325781
    Empirical Dispersion Energy =           0.0000000000000000
    VV10 Nonlocal Energy =                  0.0000000000000000
    Total Energy =                        -76.4204592923103263

Computation Completed


Properties will be evaluated at   0.000000,   0.000000,   0.000000 [a0]

Properties computed using the SCF density matrix


 Multipole Moments:

 ------------------------------------------------------------------------------------
     Multipole            Electronic (a.u.)      Nuclear  (a.u.)        Total (a.u.)
 ------------------------------------------------------------------------------------

 L = 1.  Multiply by 2.5417464519 to convert [e a0] to [Debye]
 Dipole X            :          0.0000000            0.0000000            0.0000000
 Dipole Y            :          0.0000000            0.0000000            0.0000000
 Dipole Z            :         -0.2263363            0.9783140            0.7519777
 Magnitude           :                                                    0.7519777

 ------------------------------------------------------------------------------------

*** tstop() called on TUF at Thu Jul 17 17:02:51 2025
Module time:
	user time   =       0.85 seconds =       0.01 minutes
	system time =       0.03 seconds =       0.00 minutes
	total time  =          1 seconds =       0.02 minutes
Total time:
	user time   =       3.12 seconds =       0.05 minutes
	system time =       0.16 seconds =       0.00 minutes
	total time  =          3 seconds =       0.05 minutes

Scratch directory: /home/kenrickmh/CHEM/psi4-scratch/
   => Libint2 <=

    Primary   basis highest AM E, G, H:  5, 4, 3
    Auxiliary basis highest AM E, G, H:  6, 5, 4
    Onebody   basis highest AM E, G, H:  6, 5, 4
    Solid Harmonics ordering:            Gaussian

*** tstart() called on TUF
*** at Thu Jul 17 17:02:51 2025

   => Loading Basis Set <=

    Name: CC-PVDZ
    Role: ORBITAL
    Keyword: BASIS
    atoms 1   entry O          line   198 file /usr/local/psi4/share/psi4/basis/cc-pvdz.gbs 
    atoms 2-3 entry H          line    22 file /usr/local/psi4/share/psi4/basis/cc-pvdz.gbs 


         ---------------------------------------------------------
                                   SCF
               by Justin Turney, Rob Parrish, Andy Simmonett
                          and Daniel G. A. Smith
                              RKS Reference
                        1 Threads,    572 MiB Core
         ---------------------------------------------------------

  ==> Geometry <==

    Molecular point group: c2v
    Full point group: C2v

    Geometry (in Angstrom), charge = 0, multiplicity = 1:

       Center              X                  Y                   Z               Mass       
    ------------   -----------------  -----------------  -----------------  -----------------
         O            0.000000000000     0.000000000000    -0.065775570547    15.994914619570
         H            0.000000000000    -0.759061990794     0.521953018286     1.007825032230
         H            0.000000000000     0.759061990794     0.521953018286     1.007825032230

  Running in c2v symmetry.

  Rotational constants: A =     27.26297  B =     14.51533  C =      9.47217 [cm^-1]
  Rotational constants: A = 817323.21126  B = 435158.60141  C = 283968.37536 [MHz]
  Nuclear repulsion =    9.168193296424349

  Charge       = 0
  Multiplicity = 1
  Electrons    = 10
  Nalpha       = 5
  Nbeta        = 5

  ==> Algorithm <==

  SCF Algorithm Type is DF.
  DIIS enabled.
  MOM disabled.
  Fractional occupation disabled.
  Guess Type is SAD.
  Energy threshold   = 1.00e-06
  Density threshold  = 1.00e-06
  Integral threshold = 1.00e-12

  ==> Primary Basis <==

  Basis Set: CC-PVDZ
    Blend: CC-PVDZ
    Number of shells: 12
    Number of basis functions: 24
    Number of Cartesian functions: 25
    Spherical Harmonics?: true
    Max angular momentum: 2

  ==> DFT Potential <==

   => LibXC <=

    Version 7.0.0
    S. Lehtola, C. Steigemann, M. J.T. Oliveira, and M. A.L. Marques.,  SoftwareX 7, 1–5 (2018) (10.1016/j.softx.2017.11.002)

   => Composite Functional: BLYP <= 

    BLYP GGA Exchange-Correlation Functional

    P.J. Stephens et. al., J. Phys. Chem., 98, 11623-11627, 1994
    B. Miehlich et. al., Chem. Phys. Lett., 157(3), 200-206 1989


    Deriv               =              1
    GGA                 =           TRUE
    Meta                =          FALSE

    Exchange Hybrid     =          FALSE
    MP2 Hybrid          =          FALSE

   => Exchange Functionals <=

    1.0000     XC_GGA_X_B88

   => Correlation Functionals <=

    1.0000     XC_GGA_C_LYP

   => LibXC Density Thresholds  <==

    XC_GGA_C_LYP:  1.00E-14 
    XC_GGA_X_B88:  1.00E-15 

   => Molecular Quadrature <=

    Radial Scheme          =       TREUTLER
    Pruning Scheme         =           NONE
    Nuclear Scheme         =       TREUTLER

    Blocking Scheme        =         OCTREE
    BS radius alpha        =              1
    Pruning alpha          =              1
    Radial Points          =             75
    Spherical Points       =            302
    Total Points           =          66186
    Total Blocks           =            554
    Max Points             =            256
    Max Functions          =             24
    Weights Tolerance      =       1.00E-15

   => Loading Basis Set <=

    Name: (CC-PVDZ AUX)
    Role: JKFIT
    Keyword: DF_BASIS_SCF
    atoms 1   entry O          line   221 file /usr/local/psi4/share/psi4/basis/cc-pvdz-jkfit.gbs 
    atoms 2-3 entry H          line    51 file /usr/local/psi4/share/psi4/basis/cc-pvdz-jkfit.gbs 

  ==> Integral Setup <==

  DFHelper Memory: AOs need 0.001 GiB; user supplied 0.373 GiB. 
  SCF_SUBTYPE=INCORE selected. In-core MEM_DF algorithm will be used.
  Using in-core AOs.

  ==> MemDFJK: Density-Fitted J/K Matrices <==

    J tasked:                   Yes
    K tasked:                    No
    wK tasked:                   No
    OpenMP threads:               1
    Memory [MiB]:               381
    Algorithm:                 Core
    Schwarz Cutoff:           1E-12
    Mask sparsity (%):       0.0000
    Fitting Condition:        1E-10

   => Auxiliary Basis Set <=

  Basis Set: (CC-PVDZ AUX)
    Blend: CC-PVDZ-JKFIT
    Number of shells: 42
    Number of basis functions: 116
    Number of Cartesian functions: 131
    Spherical Harmonics?: true
    Max angular momentum: 3

  Cached 100.0% of DFT collocation blocks in 0.046 [GiB].

  Minimum eigenvalue in the overlap matrix is 3.2707806872E-02.
  Reciprocal condition number of the overlap matrix is 1.0389988226E-02.
    Using symmetric orthogonalization.

  ==> Pre-Iterations <==

  SCF Guess: Superposition of Atomic Densities via on-the-fly atomic UHF (no occupation information).

   -------------------------
    Irrep   Nso     Nmo    
   -------------------------
     A1        11      11 
     A2         2       2 
     B1         4       4 
     B2         7       7 
   -------------------------
    Total      24      24
   -------------------------

  ==> Iterations <==

                           Total Energy        Delta E     RMS |[F,P]|

   @DF-RKS iter SAD:   -76.55114307285766   -7.65511e+01   0.00000e+00 
   @DF-RKS iter   1:   -76.35942803859463    1.91715e-01   1.96432e-02 ADIIS/DIIS
   @DF-RKS iter   2:   -76.35026542720453    9.16261e-03   2.66610e-02 ADIIS/DIIS
   @DF-RKS iter   3:   -76.39674924635102   -4.64838e-02   4.52705e-03 ADIIS/DIIS
   @DF-RKS iter   4:   -76.39804456822299   -1.29532e-03   1.15090e-03 ADIIS/DIIS
   @DF-RKS iter   5:   -76.39813857581677   -9.40076e-05   2.98536e-05 DIIS
   @DF-RKS iter   6:   -76.39813864082772   -6.50110e-08   2.45933e-06 DIIS
   @DF-RKS iter   7:   -76.39813864134896   -5.21240e-10   1.64189e-07 DIIS
  Energy and wave function converged.


  ==> Post-Iterations <==

   Electrons on quadrature grid:
      Ntotal   =   10.0000001667 ; deviation = 1.667e-07 

    Orbital Energies [Eh]
    ---------------------

    Doubly Occupied:                                                      

       1A1   -18.766661     2A1    -0.894044     1B2    -0.451459  
       3A1    -0.298243     1B1    -0.220435  

    Virtual:                                                              

       4A1     0.027592     2B2     0.103079     3B2     0.516411  
       5A1     0.565560     6A1     0.851131     2B1     0.863855  
       4B2     0.945200     7A1     1.159645     1A2     1.187899  
       3B1     1.380612     8A1     1.539797     5B2     1.618385  
       6B2     2.044169     9A1     2.080919     4B1     2.844607  
       2A2     2.887655    10A1     3.052328    11A1     3.381367  
       7B2     3.647836  

    Final Occupation by Irrep:
             A1    A2    B1    B2 
    DOCC [     3,    0,    1,    1 ]
    NA   [     3,    0,    1,    1 ]
    NB   [     3,    0,    1,    1 ]

  @DF-RKS Final Energy:   -76.39813864134896

   => Energetics <=

    Nuclear Repulsion Energy =              9.1681932964243487
    One-Electron Energy =                -123.1583825174154327
    Two-Electron Energy =                  46.9384507334283398
    DFT Exchange-Correlation Energy =      -9.3464001537862256
    Empirical Dispersion Energy =           0.0000000000000000
    VV10 Nonlocal Energy =                  0.0000000000000000
    Total Energy =                        -76.3981386413489645

Computation Completed


Properties will be evaluated at   0.000000,   0.000000,   0.000000 [a0]

Properties computed using the SCF density matrix


 Multipole Moments:

 ------------------------------------------------------------------------------------
     Multipole            Electronic (a.u.)      Nuclear  (a.u.)        Total (a.u.)
 ------------------------------------------------------------------------------------

 L = 1.  Multiply by 2.5417464519 to convert [e a0] to [Debye]
 Dipole X            :          0.0000000            0.0000000            0.0000000
 Dipole Y            :          0.0000000            0.0000000            0.0000000
 Dipole Z            :         -0.2525181            0.9783140            0.7257959
 Magnitude           :                                                    0.7257959

 ------------------------------------------------------------------------------------

*** tstop() called on TUF at Thu Jul 17 17:02:52 2025
Module time:
	user time   =       0.66 seconds =       0.01 minutes
	system time =       0.02 seconds =       0.00 minutes
	total time  =          1 seconds =       0.02 minutes
Total time:
	user time   =       3.82 seconds =       0.06 minutes
	system time =       0.18 seconds =       0.00 minutes
	total time  =          4 seconds =       0.07 minutes

    Psi4 stopped on: Thursday, 17 July 2025 05:02PM
    Psi4 wall time for execution: 0:00:04.23

*** Psi4 exiting successfully. Buy a developer a beer!
