
Host: TUF

Timers On : Mon Jul  7 09:47:27 2025
Timers Off: Mon Jul  7 09:47:33 2025

Wall Time:        6.89 seconds

                                                       Time (seconds)
Module                                       User      System        Wall        Calls
V: Grid                             :      0.250u      0.017s      0.166w      4 calls
build grid                          :      0.150u      0.000s      0.104w      4 calls
post-process grid                   :      0.100u      0.000s      0.061w      4 calls
DFH: sparsity prep                  :      0.033u      0.033s      0.040w      4 calls
Libint2ERI::Libint2ERI              :      0.067u      0.033s      0.045w     12 calls
DFH: initialize()                   :      0.100u      0.017s      0.070w      4 calls
DFH: AO Construction                :      0.017u      0.000s      0.011w      4 calls
DFH: AO-Met. Contraction            :      0.017u      0.000s      0.002w      4 calls
HF: Form core H                     :      0.017u      0.000s      0.005w      4 calls
HF: Form S/X                        :      0.000u      0.000s      0.001w      4 calls
HF: Guess                           :      0.150u      0.017s      0.131w      4 calls
SAD Guess                           :      0.150u      0.017s      0.124w      4 calls
HF: Form G                          :      4.967u      0.117s      3.025w     36 calls
RV: Form V                          :      4.967u      0.083s      3.008w     36 calls
Properties                          :      0.500u      0.017s      0.407w  19944 calls
Functional                          :      3.667u      0.067s      2.066w  19944 calls
V_xc                                :      0.717u      0.000s      0.473w  19944 calls
JK: D                               :      0.000u      0.000s      0.000w     36 calls
JK: USO2AO                          :      0.000u      0.000s      0.001w     36 calls
JK: JK                              :      0.000u      0.017s      0.006w     36 calls
DFH: compute_JK()                   :      0.000u      0.017s      0.006w     36 calls
DFH: Grabbing AOs                   :      0.000u      0.000s      0.000w     36 calls
DFH: compute_J                      :      0.000u      0.000s      0.002w     36 calls
DFH: compute_K                      :      0.000u      0.017s      0.003w     28 calls
JK: AO2USO                          :      0.000u      0.000s      0.000w     36 calls
HF: Form F                          :      0.000u      0.000s      0.000w     36 calls
HF: Form D                          :      0.000u      0.000s      0.000w     36 calls
HF: DIIS                            :      0.367u      0.050s      0.295w     32 calls
HF: Form C                          :      0.000u      0.000s      0.015w     32 calls

--------------------------------------------------------------------------------------
V: Grid                             :      0.250u      0.017s      0.166w      4 calls
| build grid                        :      0.150u      0.000s      0.104w      4 calls
| post-process grid                 :      0.100u      0.000s      0.061w      4 calls
DFH: sparsity prep                  :      0.033u      0.033s      0.040w      4 calls
| Libint2ERI::Libint2ERI            :      0.033u      0.033s      0.031w      4 calls
DFH: initialize()                   :      0.100u      0.017s      0.070w      4 calls
| Libint2ERI::Libint2ERI            :      0.033u      0.000s      0.014w      8 calls
| DFH: AO Construction              :      0.017u      0.000s      0.011w      4 calls
| DFH: AO-Met. Contraction          :      0.017u      0.000s      0.002w      4 calls
HF: Form core H                     :      0.017u      0.000s      0.005w      4 calls
HF: Form S/X                        :      0.000u      0.000s      0.001w      4 calls
HF: Guess                           :      0.150u      0.017s      0.131w      4 calls
| SAD Guess                         :      0.150u      0.017s      0.124w      4 calls
HF: Form G                          :      4.967u      0.117s      3.025w     36 calls
| RV: Form V                        :      4.967u      0.083s      3.008w     36 calls
| | Properties                      :      0.500u      0.017s      0.407w  19944 calls
| | Functional                      :      3.667u      0.067s      2.066w  19944 calls
| | V_xc                            :      0.717u      0.000s      0.473w  19944 calls
| JK: D                             :      0.000u      0.000s      0.000w     36 calls
| JK: USO2AO                        :      0.000u      0.000s      0.001w     36 calls
| JK: JK                            :      0.000u      0.017s      0.006w     36 calls
| | DFH: compute_JK()               :      0.000u      0.017s      0.006w     36 calls
| | | DFH: Grabbing AOs             :      0.000u      0.000s      0.000w     36 calls
| | | DFH: compute_J                :      0.000u      0.000s      0.002w     36 calls
| | | DFH: compute_K                :      0.000u      0.017s      0.003w     28 calls
| JK: AO2USO                        :      0.000u      0.000s      0.000w     36 calls
HF: Form F                          :      0.000u      0.000s      0.000w     36 calls
HF: Form D                          :      0.000u      0.000s      0.000w     36 calls
HF: DIIS                            :      0.367u      0.050s      0.295w     32 calls
HF: Form C                          :      0.000u      0.000s      0.015w     32 calls

**************************************************************************************

Host: TUF

Timers On : Mon Jul  7 09:50:19 2025
Timers Off: Mon Jul  7 09:50:20 2025

Wall Time:        0.57 seconds

                                                       Time (seconds)
Module                                       User      System        Wall        Calls

--------------------------------------------------------------------------------------

**************************************************************************************

Host: TUF

Timers On : Mon Jul  7 09:50:22 2025
Timers Off: Mon Jul  7 09:50:23 2025

Wall Time:        1.19 seconds

                                                       Time (seconds)
Module                                       User      System        Wall        Calls

--------------------------------------------------------------------------------------

**************************************************************************************

Host: TUF

Timers On : Mon Jul  7 09:50:27 2025
Timers Off: Mon Jul  7 09:50:31 2025

Wall Time:        4.39 seconds

                                                       Time (seconds)
Module                                       User      System        Wall        Calls
V: Grid                             :      0.133u      0.000s      0.079w      2 calls
build grid                          :      0.083u      0.000s      0.047w      2 calls
post-process grid                   :      0.050u      0.000s      0.032w      2 calls
DFH: sparsity prep                  :      0.033u      0.000s      0.016w      2 calls
Libint2ERI::Libint2ERI              :      0.033u      0.017s      0.020w      6 calls
DFH: initialize()                   :      0.033u      0.017s      0.030w      2 calls
DFH: AO Construction                :      0.000u      0.000s      0.005w      2 calls
DFH: AO-Met. Contraction            :      0.000u      0.000s      0.001w      2 calls
HF: Form core H                     :      0.017u      0.000s      0.002w      2 calls
HF: Form S/X                        :      0.000u      0.000s      0.000w      2 calls
HF: Guess                           :      0.083u      0.033s      0.066w      2 calls
SAD Guess                           :      0.067u      0.033s      0.063w      2 calls
HF: Form G                          :      2.417u      0.100s      1.519w     17 calls
RV: Form V                          :      2.417u      0.100s      1.510w     17 calls
Properties                          :      0.367u      0.000s      0.231w   9418 calls
Functional                          :      1.467u      0.083s      0.976w   9418 calls
V_xc                                :      0.467u      0.017s      0.269w   9418 calls
JK: D                               :      0.000u      0.000s      0.000w     17 calls
JK: USO2AO                          :      0.000u      0.000s      0.001w     17 calls
JK: JK                              :      0.000u      0.000s      0.003w     17 calls
DFH: compute_JK()                   :      0.000u      0.000s      0.003w     17 calls
DFH: Grabbing AOs                   :      0.000u      0.000s      0.000w     17 calls
DFH: compute_J                      :      0.000u      0.000s      0.001w     17 calls
DFH: compute_K                      :      0.000u      0.000s      0.002w     17 calls
JK: AO2USO                          :      0.000u      0.000s      0.000w     17 calls
HF: Form F                          :      0.000u      0.000s      0.000w     17 calls
HF: Form D                          :      0.000u      0.000s      0.000w     17 calls
HF: DIIS                            :      0.233u      0.000s      0.142w     15 calls
HF: Form C                          :      0.017u      0.000s      0.008w     15 calls

--------------------------------------------------------------------------------------
V: Grid                             :      0.133u      0.000s      0.079w      2 calls
| build grid                        :      0.083u      0.000s      0.047w      2 calls
| post-process grid                 :      0.050u      0.000s      0.032w      2 calls
DFH: sparsity prep                  :      0.033u      0.000s      0.016w      2 calls
| Libint2ERI::Libint2ERI            :      0.033u      0.000s      0.013w      2 calls
DFH: initialize()                   :      0.033u      0.017s      0.030w      2 calls
| Libint2ERI::Libint2ERI            :      0.000u      0.017s      0.008w      4 calls
| DFH: AO Construction              :      0.000u      0.000s      0.005w      2 calls
| DFH: AO-Met. Contraction          :      0.000u      0.000s      0.001w      2 calls
HF: Form core H                     :      0.017u      0.000s      0.002w      2 calls
HF: Form S/X                        :      0.000u      0.000s      0.000w      2 calls
HF: Guess                           :      0.083u      0.033s      0.066w      2 calls
| SAD Guess                         :      0.067u      0.033s      0.063w      2 calls
HF: Form G                          :      2.417u      0.100s      1.519w     17 calls
| RV: Form V                        :      2.417u      0.100s      1.510w     17 calls
| | Properties                      :      0.367u      0.000s      0.231w   9418 calls
| | Functional                      :      1.467u      0.083s      0.976w   9418 calls
| | V_xc                            :      0.467u      0.017s      0.269w   9418 calls
| JK: D                             :      0.000u      0.000s      0.000w     17 calls
| JK: USO2AO                        :      0.000u      0.000s      0.001w     17 calls
| JK: JK                            :      0.000u      0.000s      0.003w     17 calls
| | DFH: compute_JK()               :      0.000u      0.000s      0.003w     17 calls
| | | DFH: Grabbing AOs             :      0.000u      0.000s      0.000w     17 calls
| | | DFH: compute_J                :      0.000u      0.000s      0.001w     17 calls
| | | DFH: compute_K                :      0.000u      0.000s      0.002w     17 calls
| JK: AO2USO                        :      0.000u      0.000s      0.000w     17 calls
HF: Form F                          :      0.000u      0.000s      0.000w     17 calls
HF: Form D                          :      0.000u      0.000s      0.000w     17 calls
HF: DIIS                            :      0.233u      0.000s      0.142w     15 calls
HF: Form C                          :      0.017u      0.000s      0.008w     15 calls

**************************************************************************************

Host: TUF

Timers On : Mon Jul  7 09:55:44 2025
Timers Off: Mon Jul  7 09:55:47 2025

Wall Time:        3.70 seconds

                                                       Time (seconds)
Module                                       User      System        Wall        Calls
V: Grid                             :      0.133u      0.017s      0.085w      2 calls
build grid                          :      0.083u      0.017s      0.048w      2 calls
post-process grid                   :      0.050u      0.000s      0.037w      2 calls
DFH: sparsity prep                  :      0.017u      0.017s      0.018w      2 calls
Libint2ERI::Libint2ERI              :      0.000u      0.017s      0.022w      6 calls
DFH: initialize()                   :      0.050u      0.000s      0.040w      2 calls
DFH: AO Construction                :      0.017u      0.000s      0.007w      2 calls
DFH: AO-Met. Contraction            :      0.000u      0.000s      0.002w      2 calls
HF: Form core H                     :      0.017u      0.000s      0.003w      2 calls
HF: Form S/X                        :      0.000u      0.000s      0.000w      2 calls
HF: Guess                           :      0.117u      0.033s      0.093w      2 calls
SAD Guess                           :      0.117u      0.033s      0.089w      2 calls
HF: Form G                          :      2.083u      0.067s      1.299w     17 calls
RV: Form V                          :      2.067u      0.067s      1.288w     17 calls
Properties                          :      0.333u      0.017s      0.197w   9418 calls
Functional                          :      1.333u      0.033s      0.832w   9418 calls
V_xc                                :      0.350u      0.017s      0.230w   9418 calls
JK: D                               :      0.000u      0.000s      0.000w     17 calls
JK: USO2AO                          :      0.000u      0.000s      0.001w     17 calls
JK: JK                              :      0.000u      0.000s      0.003w     17 calls
DFH: compute_JK()                   :      0.000u      0.000s      0.003w     17 calls
DFH: Grabbing AOs                   :      0.000u      0.000s      0.000w     17 calls
DFH: compute_J                      :      0.000u      0.000s      0.001w     17 calls
DFH: compute_K                      :      0.000u      0.000s      0.002w     17 calls
JK: AO2USO                          :      0.000u      0.000s      0.000w     17 calls
HF: Form F                          :      0.000u      0.000s      0.000w     17 calls
HF: Form D                          :      0.000u      0.000s      0.000w     17 calls
HF: DIIS                            :      0.167u      0.017s      0.114w     15 calls
HF: Form C                          :      0.033u      0.000s      0.006w     15 calls

--------------------------------------------------------------------------------------
V: Grid                             :      0.133u      0.017s      0.085w      2 calls
| build grid                        :      0.083u      0.017s      0.048w      2 calls
| post-process grid                 :      0.050u      0.000s      0.037w      2 calls
DFH: sparsity prep                  :      0.017u      0.017s      0.018w      2 calls
| Libint2ERI::Libint2ERI            :      0.000u      0.017s      0.012w      2 calls
DFH: initialize()                   :      0.050u      0.000s      0.040w      2 calls
| Libint2ERI::Libint2ERI            :      0.000u      0.000s      0.009w      4 calls
| DFH: AO Construction              :      0.017u      0.000s      0.007w      2 calls
| DFH: AO-Met. Contraction          :      0.000u      0.000s      0.002w      2 calls
HF: Form core H                     :      0.017u      0.000s      0.003w      2 calls
HF: Form S/X                        :      0.000u      0.000s      0.000w      2 calls
HF: Guess                           :      0.117u      0.033s      0.093w      2 calls
| SAD Guess                         :      0.117u      0.033s      0.089w      2 calls
HF: Form G                          :      2.083u      0.067s      1.299w     17 calls
| RV: Form V                        :      2.067u      0.067s      1.288w     17 calls
| | Properties                      :      0.333u      0.017s      0.197w   9418 calls
| | Functional                      :      1.333u      0.033s      0.832w   9418 calls
| | V_xc                            :      0.350u      0.017s      0.230w   9418 calls
| JK: D                             :      0.000u      0.000s      0.000w     17 calls
| JK: USO2AO                        :      0.000u      0.000s      0.001w     17 calls
| JK: JK                            :      0.000u      0.000s      0.003w     17 calls
| | DFH: compute_JK()               :      0.000u      0.000s      0.003w     17 calls
| | | DFH: Grabbing AOs             :      0.000u      0.000s      0.000w     17 calls
| | | DFH: compute_J                :      0.000u      0.000s      0.001w     17 calls
| | | DFH: compute_K                :      0.000u      0.000s      0.002w     17 calls
| JK: AO2USO                        :      0.000u      0.000s      0.000w     17 calls
HF: Form F                          :      0.000u      0.000s      0.000w     17 calls
HF: Form D                          :      0.000u      0.000s      0.000w     17 calls
HF: DIIS                            :      0.167u      0.017s      0.114w     15 calls
HF: Form C                          :      0.033u      0.000s      0.006w     15 calls

**************************************************************************************

Host: TUF

Timers On : Mon Jul  7 10:02:52 2025
Timers Off: Mon Jul  7 10:02:56 2025

Wall Time:        3.65 seconds

                                                       Time (seconds)
Module                                       User      System        Wall        Calls
V: Grid                             :      0.133u      0.017s      0.088w      2 calls
build grid                          :      0.067u      0.017s      0.049w      2 calls
post-process grid                   :      0.067u      0.000s      0.038w      2 calls
DFH: sparsity prep                  :      0.017u      0.017s      0.016w      2 calls
Libint2ERI::Libint2ERI              :      0.017u      0.017s      0.020w      6 calls
DFH: initialize()                   :      0.033u      0.000s      0.026w      2 calls
DFH: AO Construction                :      0.000u      0.000s      0.005w      2 calls
DFH: AO-Met. Contraction            :      0.000u      0.000s      0.001w      2 calls
HF: Form core H                     :      0.000u      0.000s      0.008w      2 calls
HF: Form S/X                        :      0.000u      0.000s      0.000w      2 calls
HF: Guess                           :      0.100u      0.000s      0.063w      2 calls
SAD Guess                           :      0.100u      0.000s      0.060w      2 calls
HF: Form G                          :      2.133u      0.100s      1.317w     17 calls
RV: Form V                          :      2.133u      0.083s      1.308w     17 calls
Properties                          :      0.317u      0.033s      0.197w   9418 calls
Functional                          :      1.350u      0.050s      0.849w   9418 calls
V_xc                                :      0.400u      0.000s      0.234w   9418 calls
JK: D                               :      0.000u      0.000s      0.000w     17 calls
JK: USO2AO                          :      0.000u      0.000s      0.001w     17 calls
JK: JK                              :      0.000u      0.000s      0.003w     17 calls
DFH: compute_JK()                   :      0.000u      0.000s      0.003w     17 calls
DFH: Grabbing AOs                   :      0.000u      0.000s      0.000w     17 calls
DFH: compute_J                      :      0.000u      0.000s      0.001w     17 calls
DFH: compute_K                      :      0.000u      0.000s      0.002w     17 calls
JK: AO2USO                          :      0.000u      0.000s      0.000w     17 calls
HF: Form F                          :      0.000u      0.000s      0.000w     17 calls
HF: Form D                          :      0.000u      0.000s      0.000w     17 calls
HF: DIIS                            :      0.150u      0.017s      0.115w     15 calls
HF: Form C                          :      0.000u      0.000s      0.006w     15 calls

--------------------------------------------------------------------------------------
V: Grid                             :      0.133u      0.017s      0.088w      2 calls
| build grid                        :      0.067u      0.017s      0.049w      2 calls
| post-process grid                 :      0.067u      0.000s      0.038w      2 calls
DFH: sparsity prep                  :      0.017u      0.017s      0.016w      2 calls
| Libint2ERI::Libint2ERI            :      0.017u      0.017s      0.012w      2 calls
DFH: initialize()                   :      0.033u      0.000s      0.026w      2 calls
| Libint2ERI::Libint2ERI            :      0.000u      0.000s      0.008w      4 calls
| DFH: AO Construction              :      0.000u      0.000s      0.005w      2 calls
| DFH: AO-Met. Contraction          :      0.000u      0.000s      0.001w      2 calls
HF: Form core H                     :      0.000u      0.000s      0.008w      2 calls
HF: Form S/X                        :      0.000u      0.000s      0.000w      2 calls
HF: Guess                           :      0.100u      0.000s      0.063w      2 calls
| SAD Guess                         :      0.100u      0.000s      0.060w      2 calls
HF: Form G                          :      2.133u      0.100s      1.317w     17 calls
| RV: Form V                        :      2.133u      0.083s      1.308w     17 calls
| | Properties                      :      0.317u      0.033s      0.197w   9418 calls
| | Functional                      :      1.350u      0.050s      0.849w   9418 calls
| | V_xc                            :      0.400u      0.000s      0.234w   9418 calls
| JK: D                             :      0.000u      0.000s      0.000w     17 calls
| JK: USO2AO                        :      0.000u      0.000s      0.001w     17 calls
| JK: JK                            :      0.000u      0.000s      0.003w     17 calls
| | DFH: compute_JK()               :      0.000u      0.000s      0.003w     17 calls
| | | DFH: Grabbing AOs             :      0.000u      0.000s      0.000w     17 calls
| | | DFH: compute_J                :      0.000u      0.000s      0.001w     17 calls
| | | DFH: compute_K                :      0.000u      0.000s      0.002w     17 calls
| JK: AO2USO                        :      0.000u      0.000s      0.000w     17 calls
HF: Form F                          :      0.000u      0.000s      0.000w     17 calls
HF: Form D                          :      0.000u      0.000s      0.000w     17 calls
HF: DIIS                            :      0.150u      0.017s      0.115w     15 calls
HF: Form C                          :      0.000u      0.000s      0.006w     15 calls

**************************************************************************************

Host: TUF

Timers On : Mon Jul  7 10:03:01 2025
Timers Off: Mon Jul  7 10:03:05 2025

Wall Time:        4.11 seconds

                                                       Time (seconds)
Module                                       User      System        Wall        Calls
V: Grid                             :      0.183u      0.017s      0.112w      3 calls
build grid                          :      0.100u      0.000s      0.068w      3 calls
post-process grid                   :      0.083u      0.017s      0.043w      3 calls
DFH: sparsity prep                  :      0.017u      0.017s      0.021w      3 calls
Libint2ERI::Libint2ERI              :      0.017u      0.017s      0.025w      9 calls
DFH: initialize()                   :      0.050u      0.000s      0.038w      3 calls
DFH: AO Construction                :      0.017u      0.000s      0.007w      3 calls
DFH: AO-Met. Contraction            :      0.000u      0.000s      0.001w      3 calls
HF: Form core H                     :      0.000u      0.000s      0.009w      3 calls
HF: Form S/X                        :      0.000u      0.000s      0.001w      3 calls
HF: Guess                           :      0.150u      0.017s      0.089w      3 calls
SAD Guess                           :      0.133u      0.017s      0.085w      3 calls
HF: Form G                          :      2.400u      0.100s      1.535w     25 calls
RV: Form V                          :      2.383u      0.100s      1.526w     25 calls
Properties                          :      0.400u      0.017s      0.272w  13850 calls
Functional                          :      1.517u      0.067s      0.887w  13850 calls
V_xc                                :      0.367u      0.017s      0.325w  13850 calls
JK: D                               :      0.000u      0.000s      0.000w     25 calls
JK: USO2AO                          :      0.000u      0.000s      0.001w     25 calls
JK: JK                              :      0.000u      0.000s      0.002w     25 calls
DFH: compute_JK()                   :      0.000u      0.000s      0.002w     25 calls
DFH: Grabbing AOs                   :      0.000u      0.000s      0.000w     25 calls
DFH: compute_J                      :      0.000u      0.000s      0.001w     25 calls
JK: AO2USO                          :      0.000u      0.000s      0.000w     25 calls
HF: Form F                          :      0.000u      0.000s      0.000w     25 calls
HF: Form D                          :      0.000u      0.000s      0.000w     25 calls
HF: DIIS                            :      0.300u      0.017s      0.139w     22 calls
HF: Form C                          :      0.017u      0.000s      0.009w     22 calls

--------------------------------------------------------------------------------------
V: Grid                             :      0.183u      0.017s      0.112w      3 calls
| build grid                        :      0.100u      0.000s      0.068w      3 calls
| post-process grid                 :      0.083u      0.017s      0.043w      3 calls
DFH: sparsity prep                  :      0.017u      0.017s      0.021w      3 calls
| Libint2ERI::Libint2ERI            :      0.000u      0.017s      0.015w      3 calls
DFH: initialize()                   :      0.050u      0.000s      0.038w      3 calls
| Libint2ERI::Libint2ERI            :      0.017u      0.000s      0.010w      6 calls
| DFH: AO Construction              :      0.017u      0.000s      0.007w      3 calls
| DFH: AO-Met. Contraction          :      0.000u      0.000s      0.001w      3 calls
HF: Form core H                     :      0.000u      0.000s      0.009w      3 calls
HF: Form S/X                        :      0.000u      0.000s      0.001w      3 calls
HF: Guess                           :      0.150u      0.017s      0.089w      3 calls
| SAD Guess                         :      0.133u      0.017s      0.085w      3 calls
HF: Form G                          :      2.400u      0.100s      1.535w     25 calls
| RV: Form V                        :      2.383u      0.100s      1.526w     25 calls
| | Properties                      :      0.400u      0.017s      0.272w  13850 calls
| | Functional                      :      1.517u      0.067s      0.887w  13850 calls
| | V_xc                            :      0.367u      0.017s      0.325w  13850 calls
| JK: D                             :      0.000u      0.000s      0.000w     25 calls
| JK: USO2AO                        :      0.000u      0.000s      0.001w     25 calls
| JK: JK                            :      0.000u      0.000s      0.002w     25 calls
| | DFH: compute_JK()               :      0.000u      0.000s      0.002w     25 calls
| | | DFH: Grabbing AOs             :      0.000u      0.000s      0.000w     25 calls
| | | DFH: compute_J                :      0.000u      0.000s      0.001w     25 calls
| JK: AO2USO                        :      0.000u      0.000s      0.000w     25 calls
HF: Form F                          :      0.000u      0.000s      0.000w     25 calls
HF: Form D                          :      0.000u      0.000s      0.000w     25 calls
HF: DIIS                            :      0.300u      0.017s      0.139w     22 calls
HF: Form C                          :      0.017u      0.000s      0.009w     22 calls

**************************************************************************************

Host: TUF

Timers On : Mon Jul  7 10:04:13 2025
Timers Off: Mon Jul  7 10:04:18 2025

Wall Time:        4.15 seconds

                                                       Time (seconds)
Module                                       User      System        Wall        Calls
V: Grid                             :      0.200u      0.017s      0.122w      3 calls
build grid                          :      0.117u      0.000s      0.071w      3 calls
post-process grid                   :      0.083u      0.017s      0.050w      3 calls
DFH: sparsity prep                  :      0.033u      0.017s      0.024w      3 calls
Libint2ERI::Libint2ERI              :      0.033u      0.017s      0.028w      9 calls
DFH: initialize()                   :      0.050u      0.000s      0.041w      3 calls
DFH: AO Construction                :      0.000u      0.000s      0.007w      3 calls
DFH: AO-Met. Contraction            :      0.000u      0.000s      0.001w      3 calls
HF: Form core H                     :      0.000u      0.000s      0.009w      3 calls
HF: Form S/X                        :      0.000u      0.000s      0.001w      3 calls
HF: Guess                           :      0.133u      0.017s      0.093w      3 calls
SAD Guess                           :      0.133u      0.017s      0.089w      3 calls
HF: Form G                          :      2.367u      0.083s      1.502w     25 calls
RV: Form V                          :      2.367u      0.083s      1.493w     25 calls
Properties                          :      0.433u      0.000s      0.270w  13850 calls
Functional                          :      1.417u      0.067s      0.868w  13850 calls
V_xc                                :      0.450u      0.017s      0.315w  13850 calls
JK: D                               :      0.000u      0.000s      0.000w     25 calls
JK: USO2AO                          :      0.000u      0.000s      0.001w     25 calls
JK: JK                              :      0.000u      0.000s      0.002w     25 calls
DFH: compute_JK()                   :      0.000u      0.000s      0.002w     25 calls
DFH: Grabbing AOs                   :      0.000u      0.000s      0.000w     25 calls
DFH: compute_J                      :      0.000u      0.000s      0.001w     25 calls
JK: AO2USO                          :      0.000u      0.000s      0.000w     25 calls
HF: Form F                          :      0.000u      0.000s      0.000w     25 calls
HF: Form D                          :      0.000u      0.000s      0.000w     25 calls
HF: DIIS                            :      0.167u      0.017s      0.140w     22 calls
HF: Form C                          :      0.000u      0.000s      0.009w     22 calls

--------------------------------------------------------------------------------------
V: Grid                             :      0.200u      0.017s      0.122w      3 calls
| build grid                        :      0.117u      0.000s      0.071w      3 calls
| post-process grid                 :      0.083u      0.017s      0.050w      3 calls
DFH: sparsity prep                  :      0.033u      0.017s      0.024w      3 calls
| Libint2ERI::Libint2ERI            :      0.017u      0.017s      0.018w      3 calls
DFH: initialize()                   :      0.050u      0.000s      0.041w      3 calls
| Libint2ERI::Libint2ERI            :      0.017u      0.000s      0.010w      6 calls
| DFH: AO Construction              :      0.000u      0.000s      0.007w      3 calls
| DFH: AO-Met. Contraction          :      0.000u      0.000s      0.001w      3 calls
HF: Form core H                     :      0.000u      0.000s      0.009w      3 calls
HF: Form S/X                        :      0.000u      0.000s      0.001w      3 calls
HF: Guess                           :      0.133u      0.017s      0.093w      3 calls
| SAD Guess                         :      0.133u      0.017s      0.089w      3 calls
HF: Form G                          :      2.367u      0.083s      1.502w     25 calls
| RV: Form V                        :      2.367u      0.083s      1.493w     25 calls
| | Properties                      :      0.433u      0.000s      0.270w  13850 calls
| | Functional                      :      1.417u      0.067s      0.868w  13850 calls
| | V_xc                            :      0.450u      0.017s      0.315w  13850 calls
| JK: D                             :      0.000u      0.000s      0.000w     25 calls
| JK: USO2AO                        :      0.000u      0.000s      0.001w     25 calls
| JK: JK                            :      0.000u      0.000s      0.002w     25 calls
| | DFH: compute_JK()               :      0.000u      0.000s      0.002w     25 calls
| | | DFH: Grabbing AOs             :      0.000u      0.000s      0.000w     25 calls
| | | DFH: compute_J                :      0.000u      0.000s      0.001w     25 calls
| JK: AO2USO                        :      0.000u      0.000s      0.000w     25 calls
HF: Form F                          :      0.000u      0.000s      0.000w     25 calls
HF: Form D                          :      0.000u      0.000s      0.000w     25 calls
HF: DIIS                            :      0.167u      0.017s      0.140w     22 calls
HF: Form C                          :      0.000u      0.000s      0.009w     22 calls

**************************************************************************************

Host: TUF

Timers On : Mon Jul  7 10:04:32 2025
Timers Off: Mon Jul  7 10:04:36 2025

Wall Time:        4.37 seconds

                                                       Time (seconds)
Module                                       User      System        Wall        Calls
V: Grid                             :      0.217u      0.017s      0.141w      3 calls
build grid                          :      0.133u      0.000s      0.085w      3 calls
post-process grid                   :      0.083u      0.017s      0.056w      3 calls
DFH: sparsity prep                  :      0.017u      0.017s      0.027w      3 calls
Libint2ERI::Libint2ERI              :      0.017u      0.050s      0.047w      9 calls
DFH: initialize()                   :      0.083u      0.033s      0.067w      3 calls
DFH: AO Construction                :      0.017u      0.000s      0.008w      3 calls
DFH: AO-Met. Contraction            :      0.000u      0.000s      0.001w      3 calls
HF: Form core H                     :      0.000u      0.000s      0.009w      3 calls
HF: Form S/X                        :      0.017u      0.000s      0.001w      3 calls
HF: Guess                           :      0.133u      0.033s      0.101w      3 calls
SAD Guess                           :      0.133u      0.033s      0.096w      3 calls
HF: Form G                          :      2.617u      0.083s      1.655w     25 calls
RV: Form V                          :      2.600u      0.083s      1.645w     25 calls
Properties                          :      0.733u      0.033s      0.303w  13850 calls
Functional                          :      1.267u      0.033s      0.949w  13850 calls
V_xc                                :      0.583u      0.017s      0.348w  13850 calls
JK: D                               :      0.000u      0.000s      0.000w     25 calls
JK: USO2AO                          :      0.000u      0.000s      0.001w     25 calls
JK: JK                              :      0.000u      0.000s      0.002w     25 calls
DFH: compute_JK()                   :      0.000u      0.000s      0.002w     25 calls
DFH: Grabbing AOs                   :      0.000u      0.000s      0.000w     25 calls
DFH: compute_J                      :      0.000u      0.000s      0.002w     25 calls
JK: AO2USO                          :      0.000u      0.000s      0.000w     25 calls
HF: Form F                          :      0.000u      0.000s      0.000w     25 calls
HF: Form D                          :      0.000u      0.000s      0.000w     25 calls
HF: DIIS                            :      0.283u      0.017s      0.165w     22 calls
HF: Form C                          :      0.033u      0.000s      0.010w     22 calls

--------------------------------------------------------------------------------------
V: Grid                             :      0.217u      0.017s      0.141w      3 calls
| build grid                        :      0.133u      0.000s      0.085w      3 calls
| post-process grid                 :      0.083u      0.017s      0.056w      3 calls
DFH: sparsity prep                  :      0.017u      0.017s      0.027w      3 calls
| Libint2ERI::Libint2ERI            :      0.017u      0.017s      0.021w      3 calls
DFH: initialize()                   :      0.083u      0.033s      0.067w      3 calls
| Libint2ERI::Libint2ERI            :      0.000u      0.033s      0.026w      6 calls
| DFH: AO Construction              :      0.017u      0.000s      0.008w      3 calls
| DFH: AO-Met. Contraction          :      0.000u      0.000s      0.001w      3 calls
HF: Form core H                     :      0.000u      0.000s      0.009w      3 calls
HF: Form S/X                        :      0.017u      0.000s      0.001w      3 calls
HF: Guess                           :      0.133u      0.033s      0.101w      3 calls
| SAD Guess                         :      0.133u      0.033s      0.096w      3 calls
HF: Form G                          :      2.617u      0.083s      1.655w     25 calls
| RV: Form V                        :      2.600u      0.083s      1.645w     25 calls
| | Properties                      :      0.733u      0.033s      0.303w  13850 calls
| | Functional                      :      1.267u      0.033s      0.949w  13850 calls
| | V_xc                            :      0.583u      0.017s      0.348w  13850 calls
| JK: D                             :      0.000u      0.000s      0.000w     25 calls
| JK: USO2AO                        :      0.000u      0.000s      0.001w     25 calls
| JK: JK                            :      0.000u      0.000s      0.002w     25 calls
| | DFH: compute_JK()               :      0.000u      0.000s      0.002w     25 calls
| | | DFH: Grabbing AOs             :      0.000u      0.000s      0.000w     25 calls
| | | DFH: compute_J                :      0.000u      0.000s      0.002w     25 calls
| JK: AO2USO                        :      0.000u      0.000s      0.000w     25 calls
HF: Form F                          :      0.000u      0.000s      0.000w     25 calls
HF: Form D                          :      0.000u      0.000s      0.000w     25 calls
HF: DIIS                            :      0.283u      0.017s      0.165w     22 calls
HF: Form C                          :      0.033u      0.000s      0.010w     22 calls

**************************************************************************************

Host: TUF

Timers On : Mon Jul  7 10:07:05 2025
Timers Off: Mon Jul  7 10:07:10 2025

Wall Time:        4.10 seconds

                                                       Time (seconds)
Module                                       User      System        Wall        Calls
V: Grid                             :      0.200u      0.017s      0.129w      3 calls
build grid                          :      0.117u      0.017s      0.074w      3 calls
post-process grid                   :      0.083u      0.000s      0.056w      3 calls
DFH: sparsity prep                  :      0.033u      0.017s      0.020w      3 calls
Libint2ERI::Libint2ERI              :      0.050u      0.033s      0.024w      9 calls
DFH: initialize()                   :      0.067u      0.017s      0.044w      3 calls
DFH: AO Construction                :      0.017u      0.000s      0.009w      3 calls
DFH: AO-Met. Contraction            :      0.000u      0.000s      0.001w      3 calls
HF: Form core H                     :      0.000u      0.000s      0.009w      3 calls
HF: Form S/X                        :      0.017u      0.000s      0.001w      3 calls
HF: Guess                           :      0.117u      0.017s      0.094w      3 calls
SAD Guess                           :      0.117u      0.017s      0.089w      3 calls
HF: Form G                          :      2.433u      0.083s      1.509w     25 calls
RV: Form V                          :      2.417u      0.083s      1.499w     25 calls
Properties                          :      0.400u      0.000s      0.270w  13850 calls
Functional                          :      1.517u      0.067s      0.872w  13850 calls
V_xc                                :      0.433u      0.017s      0.317w  13850 calls
JK: D                               :      0.017u      0.000s      0.000w     25 calls
JK: USO2AO                          :      0.000u      0.000s      0.001w     25 calls
JK: JK                              :      0.000u      0.000s      0.002w     25 calls
DFH: compute_JK()                   :      0.000u      0.000s      0.002w     25 calls
DFH: Grabbing AOs                   :      0.000u      0.000s      0.000w     25 calls
DFH: compute_J                      :      0.000u      0.000s      0.001w     25 calls
JK: AO2USO                          :      0.000u      0.000s      0.000w     25 calls
HF: Form F                          :      0.000u      0.000s      0.000w     25 calls
HF: Form D                          :      0.000u      0.000s      0.000w     25 calls
HF: DIIS                            :      0.233u      0.017s      0.141w     22 calls
HF: Form C                          :      0.017u      0.000s      0.009w     22 calls

--------------------------------------------------------------------------------------
V: Grid                             :      0.200u      0.017s      0.129w      3 calls
| build grid                        :      0.117u      0.017s      0.074w      3 calls
| post-process grid                 :      0.083u      0.000s      0.056w      3 calls
DFH: sparsity prep                  :      0.033u      0.017s      0.020w      3 calls
| Libint2ERI::Libint2ERI            :      0.033u      0.017s      0.015w      3 calls
DFH: initialize()                   :      0.067u      0.017s      0.044w      3 calls
| Libint2ERI::Libint2ERI            :      0.017u      0.017s      0.010w      6 calls
| DFH: AO Construction              :      0.017u      0.000s      0.009w      3 calls
| DFH: AO-Met. Contraction          :      0.000u      0.000s      0.001w      3 calls
HF: Form core H                     :      0.000u      0.000s      0.009w      3 calls
HF: Form S/X                        :      0.017u      0.000s      0.001w      3 calls
HF: Guess                           :      0.117u      0.017s      0.094w      3 calls
| SAD Guess                         :      0.117u      0.017s      0.089w      3 calls
HF: Form G                          :      2.433u      0.083s      1.509w     25 calls
| RV: Form V                        :      2.417u      0.083s      1.499w     25 calls
| | Properties                      :      0.400u      0.000s      0.270w  13850 calls
| | Functional                      :      1.517u      0.067s      0.872w  13850 calls
| | V_xc                            :      0.433u      0.017s      0.317w  13850 calls
| JK: D                             :      0.017u      0.000s      0.000w     25 calls
| JK: USO2AO                        :      0.000u      0.000s      0.001w     25 calls
| JK: JK                            :      0.000u      0.000s      0.002w     25 calls
| | DFH: compute_JK()               :      0.000u      0.000s      0.002w     25 calls
| | | DFH: Grabbing AOs             :      0.000u      0.000s      0.000w     25 calls
| | | DFH: compute_J                :      0.000u      0.000s      0.001w     25 calls
| JK: AO2USO                        :      0.000u      0.000s      0.000w     25 calls
HF: Form F                          :      0.000u      0.000s      0.000w     25 calls
HF: Form D                          :      0.000u      0.000s      0.000w     25 calls
HF: DIIS                            :      0.233u      0.017s      0.141w     22 calls
HF: Form C                          :      0.017u      0.000s      0.009w     22 calls

**************************************************************************************

Host: TUF

Timers On : Mon Jul  7 10:07:52 2025
Timers Off: Mon Jul  7 10:07:56 2025

Wall Time:        3.35 seconds

                                                       Time (seconds)
Module                                       User      System        Wall        Calls
V: Grid                             :      0.100u      0.000s      0.079w      2 calls
build grid                          :      0.067u      0.000s      0.048w      2 calls
post-process grid                   :      0.033u      0.000s      0.032w      2 calls
DFH: sparsity prep                  :      0.033u      0.000s      0.015w      2 calls
Libint2ERI::Libint2ERI              :      0.017u      0.017s      0.019w      6 calls
DFH: initialize()                   :      0.033u      0.017s      0.026w      2 calls
DFH: AO Construction                :      0.000u      0.000s      0.005w      2 calls
DFH: AO-Met. Contraction            :      0.000u      0.000s      0.001w      2 calls
HF: Form core H                     :      0.000u      0.000s      0.005w      2 calls
HF: Form S/X                        :      0.000u      0.000s      0.001w      2 calls
HF: Guess                           :      0.117u      0.017s      0.077w      2 calls
SAD Guess                           :      0.117u      0.017s      0.073w      2 calls
HF: Form G                          :      1.817u      0.050s      1.126w     17 calls
RV: Form V                          :      1.800u      0.050s      1.118w     17 calls
Properties                          :      0.350u      0.017s      0.201w   9418 calls
Functional                          :      0.967u      0.017s      0.651w   9418 calls
V_xc                                :      0.433u      0.017s      0.235w   9418 calls
JK: D                               :      0.000u      0.000s      0.000w     17 calls
JK: USO2AO                          :      0.000u      0.000s      0.001w     17 calls
JK: JK                              :      0.000u      0.000s      0.001w     17 calls
DFH: compute_JK()                   :      0.000u      0.000s      0.001w     17 calls
DFH: Grabbing AOs                   :      0.000u      0.000s      0.000w     17 calls
DFH: compute_J                      :      0.000u      0.000s      0.001w     17 calls
JK: AO2USO                          :      0.000u      0.000s      0.000w     17 calls
HF: Form F                          :      0.000u      0.000s      0.000w     17 calls
HF: Form D                          :      0.000u      0.000s      0.000w     17 calls
HF: DIIS                            :      0.217u      0.033s      0.115w     15 calls
HF: Form C                          :      0.000u      0.000s      0.007w     15 calls

--------------------------------------------------------------------------------------
V: Grid                             :      0.100u      0.000s      0.079w      2 calls
| build grid                        :      0.067u      0.000s      0.048w      2 calls
| post-process grid                 :      0.033u      0.000s      0.032w      2 calls
DFH: sparsity prep                  :      0.033u      0.000s      0.015w      2 calls
| Libint2ERI::Libint2ERI            :      0.017u      0.000s      0.012w      2 calls
DFH: initialize()                   :      0.033u      0.017s      0.026w      2 calls
| Libint2ERI::Libint2ERI            :      0.000u      0.017s      0.007w      4 calls
| DFH: AO Construction              :      0.000u      0.000s      0.005w      2 calls
| DFH: AO-Met. Contraction          :      0.000u      0.000s      0.001w      2 calls
HF: Form core H                     :      0.000u      0.000s      0.005w      2 calls
HF: Form S/X                        :      0.000u      0.000s      0.001w      2 calls
HF: Guess                           :      0.117u      0.017s      0.077w      2 calls
| SAD Guess                         :      0.117u      0.017s      0.073w      2 calls
HF: Form G                          :      1.817u      0.050s      1.126w     17 calls
| RV: Form V                        :      1.800u      0.050s      1.118w     17 calls
| | Properties                      :      0.350u      0.017s      0.201w   9418 calls
| | Functional                      :      0.967u      0.017s      0.651w   9418 calls
| | V_xc                            :      0.433u      0.017s      0.235w   9418 calls
| JK: D                             :      0.000u      0.000s      0.000w     17 calls
| JK: USO2AO                        :      0.000u      0.000s      0.001w     17 calls
| JK: JK                            :      0.000u      0.000s      0.001w     17 calls
| | DFH: compute_JK()               :      0.000u      0.000s      0.001w     17 calls
| | | DFH: Grabbing AOs             :      0.000u      0.000s      0.000w     17 calls
| | | DFH: compute_J                :      0.000u      0.000s      0.001w     17 calls
| JK: AO2USO                        :      0.000u      0.000s      0.000w     17 calls
HF: Form F                          :      0.000u      0.000s      0.000w     17 calls
HF: Form D                          :      0.000u      0.000s      0.000w     17 calls
HF: DIIS                            :      0.217u      0.033s      0.115w     15 calls
HF: Form C                          :      0.000u      0.000s      0.007w     15 calls

**************************************************************************************

Host: TUF

Timers On : Mon Jul  7 10:08:37 2025
Timers Off: Mon Jul  7 10:08:41 2025

Wall Time:        3.46 seconds

                                                       Time (seconds)
Module                                       User      System        Wall        Calls
V: Grid                             :      0.133u      0.017s      0.084w      2 calls
build grid                          :      0.083u      0.017s      0.052w      2 calls
post-process grid                   :      0.050u      0.000s      0.032w      2 calls
DFH: sparsity prep                  :      0.017u      0.017s      0.016w      2 calls
Libint2ERI::Libint2ERI              :      0.017u      0.017s      0.021w      6 calls
DFH: initialize()                   :      0.033u      0.000s      0.030w      2 calls
DFH: AO Construction                :      0.000u      0.000s      0.005w      2 calls
DFH: AO-Met. Contraction            :      0.000u      0.000s      0.001w      2 calls
HF: Form core H                     :      0.000u      0.000s      0.005w      2 calls
HF: Form S/X                        :      0.000u      0.000s      0.000w      2 calls
HF: Guess                           :      0.083u      0.033s      0.066w      2 calls
SAD Guess                           :      0.067u      0.033s      0.064w      2 calls
HF: Form G                          :      1.867u      0.050s      1.131w     17 calls
RV: Form V                          :      1.850u      0.050s      1.124w     17 calls
Properties                          :      0.383u      0.017s      0.189w   9418 calls
Functional                          :      1.050u      0.033s      0.687w   9418 calls
V_xc                                :      0.383u      0.000s      0.219w   9418 calls
JK: D                               :      0.000u      0.000s      0.000w     17 calls
JK: USO2AO                          :      0.000u      0.000s      0.001w     17 calls
JK: JK                              :      0.000u      0.000s      0.002w     17 calls
DFH: compute_JK()                   :      0.000u      0.000s      0.001w     17 calls
DFH: Grabbing AOs                   :      0.000u      0.000s      0.000w     17 calls
DFH: compute_J                      :      0.000u      0.000s      0.001w     17 calls
JK: AO2USO                          :      0.000u      0.000s      0.000w     17 calls
HF: Form F                          :      0.000u      0.000s      0.000w     17 calls
HF: Form D                          :      0.000u      0.000s      0.000w     17 calls
HF: DIIS                            :      0.167u      0.017s      0.114w     15 calls
HF: Form C                          :      0.017u      0.000s      0.007w     15 calls

--------------------------------------------------------------------------------------
V: Grid                             :      0.133u      0.017s      0.084w      2 calls
| build grid                        :      0.083u      0.017s      0.052w      2 calls
| post-process grid                 :      0.050u      0.000s      0.032w      2 calls
DFH: sparsity prep                  :      0.017u      0.017s      0.016w      2 calls
| Libint2ERI::Libint2ERI            :      0.017u      0.017s      0.013w      2 calls
DFH: initialize()                   :      0.033u      0.000s      0.030w      2 calls
| Libint2ERI::Libint2ERI            :      0.000u      0.000s      0.008w      4 calls
| DFH: AO Construction              :      0.000u      0.000s      0.005w      2 calls
| DFH: AO-Met. Contraction          :      0.000u      0.000s      0.001w      2 calls
HF: Form core H                     :      0.000u      0.000s      0.005w      2 calls
HF: Form S/X                        :      0.000u      0.000s      0.000w      2 calls
HF: Guess                           :      0.083u      0.033s      0.066w      2 calls
| SAD Guess                         :      0.067u      0.033s      0.064w      2 calls
HF: Form G                          :      1.867u      0.050s      1.131w     17 calls
| RV: Form V                        :      1.850u      0.050s      1.124w     17 calls
| | Properties                      :      0.383u      0.017s      0.189w   9418 calls
| | Functional                      :      1.050u      0.033s      0.687w   9418 calls
| | V_xc                            :      0.383u      0.000s      0.219w   9418 calls
| JK: D                             :      0.000u      0.000s      0.000w     17 calls
| JK: USO2AO                        :      0.000u      0.000s      0.001w     17 calls
| JK: JK                            :      0.000u      0.000s      0.002w     17 calls
| | DFH: compute_JK()               :      0.000u      0.000s      0.001w     17 calls
| | | DFH: Grabbing AOs             :      0.000u      0.000s      0.000w     17 calls
| | | DFH: compute_J                :      0.000u      0.000s      0.001w     17 calls
| JK: AO2USO                        :      0.000u      0.000s      0.000w     17 calls
HF: Form F                          :      0.000u      0.000s      0.000w     17 calls
HF: Form D                          :      0.000u      0.000s      0.000w     17 calls
HF: DIIS                            :      0.167u      0.017s      0.114w     15 calls
HF: Form C                          :      0.017u      0.000s      0.007w     15 calls

**************************************************************************************

Host: TUF

Timers On : Mon Jul  7 10:10:48 2025
Timers Off: Mon Jul  7 10:10:52 2025

Wall Time:        4.18 seconds

                                                       Time (seconds)
Module                                       User      System        Wall        Calls
V: Grid                             :      0.167u      0.017s      0.110w      3 calls
build grid                          :      0.100u      0.000s      0.066w      3 calls
post-process grid                   :      0.067u      0.017s      0.044w      3 calls
DFH: sparsity prep                  :      0.033u      0.017s      0.028w      3 calls
Libint2ERI::Libint2ERI              :      0.000u      0.017s      0.032w      9 calls
DFH: initialize()                   :      0.083u      0.000s      0.051w      3 calls
DFH: AO Construction                :      0.033u      0.000s      0.008w      3 calls
DFH: AO-Met. Contraction            :      0.000u      0.000s      0.001w      3 calls
HF: Form core H                     :      0.000u      0.000s      0.003w      3 calls
HF: Form S/X                        :      0.000u      0.000s      0.001w      3 calls
HF: Guess                           :      0.150u      0.033s      0.088w      3 calls
SAD Guess                           :      0.133u      0.033s      0.084w      3 calls
HF: Form G                          :      2.467u      0.083s      1.535w     25 calls
RV: Form V                          :      2.450u      0.083s      1.526w     25 calls
Properties                          :      0.367u      0.017s      0.274w  13850 calls
Functional                          :      1.500u      0.050s      0.889w  13850 calls
V_xc                                :      0.517u      0.000s      0.322w  13850 calls
JK: D                               :      0.000u      0.000s      0.000w     25 calls
JK: USO2AO                          :      0.000u      0.000s      0.001w     25 calls
JK: JK                              :      0.017u      0.000s      0.002w     25 calls
DFH: compute_JK()                   :      0.017u      0.000s      0.002w     25 calls
DFH: Grabbing AOs                   :      0.000u      0.000s      0.000w     25 calls
DFH: compute_J                      :      0.017u      0.000s      0.002w     25 calls
JK: AO2USO                          :      0.000u      0.000s      0.000w     25 calls
HF: Form F                          :      0.000u      0.000s      0.000w     25 calls
HF: Form D                          :      0.000u      0.000s      0.000w     25 calls
HF: DIIS                            :      0.167u      0.017s      0.133w     22 calls
HF: Form C                          :      0.033u      0.000s      0.009w     22 calls

--------------------------------------------------------------------------------------
V: Grid                             :      0.167u      0.017s      0.110w      3 calls
| build grid                        :      0.100u      0.000s      0.066w      3 calls
| post-process grid                 :      0.067u      0.017s      0.044w      3 calls
DFH: sparsity prep                  :      0.033u      0.017s      0.028w      3 calls
| Libint2ERI::Libint2ERI            :      0.000u      0.017s      0.019w      3 calls
DFH: initialize()                   :      0.083u      0.000s      0.051w      3 calls
| Libint2ERI::Libint2ERI            :      0.000u      0.000s      0.012w      6 calls
| DFH: AO Construction              :      0.033u      0.000s      0.008w      3 calls
| DFH: AO-Met. Contraction          :      0.000u      0.000s      0.001w      3 calls
HF: Form core H                     :      0.000u      0.000s      0.003w      3 calls
HF: Form S/X                        :      0.000u      0.000s      0.001w      3 calls
HF: Guess                           :      0.150u      0.033s      0.088w      3 calls
| SAD Guess                         :      0.133u      0.033s      0.084w      3 calls
HF: Form G                          :      2.467u      0.083s      1.535w     25 calls
| RV: Form V                        :      2.450u      0.083s      1.526w     25 calls
| | Properties                      :      0.367u      0.017s      0.274w  13850 calls
| | Functional                      :      1.500u      0.050s      0.889w  13850 calls
| | V_xc                            :      0.517u      0.000s      0.322w  13850 calls
| JK: D                             :      0.000u      0.000s      0.000w     25 calls
| JK: USO2AO                        :      0.000u      0.000s      0.001w     25 calls
| JK: JK                            :      0.017u      0.000s      0.002w     25 calls
| | DFH: compute_JK()               :      0.017u      0.000s      0.002w     25 calls
| | | DFH: Grabbing AOs             :      0.000u      0.000s      0.000w     25 calls
| | | DFH: compute_J                :      0.017u      0.000s      0.002w     25 calls
| JK: AO2USO                        :      0.000u      0.000s      0.000w     25 calls
HF: Form F                          :      0.000u      0.000s      0.000w     25 calls
HF: Form D                          :      0.000u      0.000s      0.000w     25 calls
HF: DIIS                            :      0.167u      0.017s      0.133w     22 calls
HF: Form C                          :      0.033u      0.000s      0.009w     22 calls

**************************************************************************************

Host: TUF

Timers On : Mon Jul  7 10:11:01 2025
Timers Off: Mon Jul  7 10:11:05 2025

Wall Time:        4.22 seconds

                                                       Time (seconds)
Module                                       User      System        Wall        Calls
V: Grid                             :      0.217u      0.033s      0.154w      3 calls
build grid                          :      0.133u      0.017s      0.087w      3 calls
post-process grid                   :      0.083u      0.017s      0.067w      3 calls
DFH: sparsity prep                  :      0.017u      0.017s      0.023w      3 calls
Libint2ERI::Libint2ERI              :      0.017u      0.033s      0.030w      9 calls
DFH: initialize()                   :      0.050u      0.017s      0.044w      3 calls
DFH: AO Construction                :      0.017u      0.000s      0.007w      3 calls
DFH: AO-Met. Contraction            :      0.000u      0.000s      0.001w      3 calls
HF: Form core H                     :      0.000u      0.000s      0.002w      3 calls
HF: Form S/X                        :      0.000u      0.000s      0.000w      3 calls
HF: Guess                           :      0.150u      0.033s      0.111w      3 calls
SAD Guess                           :      0.150u      0.033s      0.106w      3 calls
HF: Form G                          :      2.600u      0.133s      1.588w     25 calls
RV: Form V                          :      2.583u      0.133s      1.576w     25 calls
Properties                          :      0.350u      0.017s      0.287w  13850 calls
Functional                          :      1.633u      0.100s      0.908w  13850 calls
V_xc                                :      0.533u      0.017s      0.338w  13850 calls
JK: D                               :      0.000u      0.000s      0.000w     25 calls
JK: USO2AO                          :      0.000u      0.000s      0.001w     25 calls
JK: JK                              :      0.000u      0.000s      0.002w     25 calls
DFH: compute_JK()                   :      0.000u      0.000s      0.002w     25 calls
DFH: Grabbing AOs                   :      0.000u      0.000s      0.000w     25 calls
DFH: compute_J                      :      0.000u      0.000s      0.002w     25 calls
JK: AO2USO                          :      0.017u      0.000s      0.000w     25 calls
HF: Form F                          :      0.000u      0.000s      0.000w     25 calls
HF: Form D                          :      0.000u      0.000s      0.000w     25 calls
HF: DIIS                            :      0.183u      0.017s      0.135w     22 calls
HF: Form C                          :      0.017u      0.000s      0.009w     22 calls

--------------------------------------------------------------------------------------
V: Grid                             :      0.217u      0.033s      0.154w      3 calls
| build grid                        :      0.133u      0.017s      0.087w      3 calls
| post-process grid                 :      0.083u      0.017s      0.067w      3 calls
DFH: sparsity prep                  :      0.017u      0.017s      0.023w      3 calls
| Libint2ERI::Libint2ERI            :      0.017u      0.017s      0.017w      3 calls
DFH: initialize()                   :      0.050u      0.017s      0.044w      3 calls
| Libint2ERI::Libint2ERI            :      0.000u      0.017s      0.013w      6 calls
| DFH: AO Construction              :      0.017u      0.000s      0.007w      3 calls
| DFH: AO-Met. Contraction          :      0.000u      0.000s      0.001w      3 calls
HF: Form core H                     :      0.000u      0.000s      0.002w      3 calls
HF: Form S/X                        :      0.000u      0.000s      0.000w      3 calls
HF: Guess                           :      0.150u      0.033s      0.111w      3 calls
| SAD Guess                         :      0.150u      0.033s      0.106w      3 calls
HF: Form G                          :      2.600u      0.133s      1.588w     25 calls
| RV: Form V                        :      2.583u      0.133s      1.576w     25 calls
| | Properties                      :      0.350u      0.017s      0.287w  13850 calls
| | Functional                      :      1.633u      0.100s      0.908w  13850 calls
| | V_xc                            :      0.533u      0.017s      0.338w  13850 calls
| JK: D                             :      0.000u      0.000s      0.000w     25 calls
| JK: USO2AO                        :      0.000u      0.000s      0.001w     25 calls
| JK: JK                            :      0.000u      0.000s      0.002w     25 calls
| | DFH: compute_JK()               :      0.000u      0.000s      0.002w     25 calls
| | | DFH: Grabbing AOs             :      0.000u      0.000s      0.000w     25 calls
| | | DFH: compute_J                :      0.000u      0.000s      0.002w     25 calls
| JK: AO2USO                        :      0.017u      0.000s      0.000w     25 calls
HF: Form F                          :      0.000u      0.000s      0.000w     25 calls
HF: Form D                          :      0.000u      0.000s      0.000w     25 calls
HF: DIIS                            :      0.183u      0.017s      0.135w     22 calls
HF: Form C                          :      0.017u      0.000s      0.009w     22 calls

**************************************************************************************

Host: TUF

Timers On : Mon Jul  7 10:15:58 2025
Timers Off: Mon Jul  7 10:16:03 2025

Wall Time:        5.03 seconds

                                                       Time (seconds)
Module                                       User      System        Wall        Calls
V: Grid                             :      0.217u      0.033s      0.144w      4 calls
build grid                          :      0.133u      0.000s      0.088w      4 calls
post-process grid                   :      0.083u      0.033s      0.055w      4 calls
DFH: sparsity prep                  :      0.050u      0.000s      0.028w      4 calls
Libint2ERI::Libint2ERI              :      0.067u      0.017s      0.032w     12 calls
DFH: initialize()                   :      0.067u      0.017s      0.049w      4 calls
DFH: AO Construction                :      0.000u      0.000s      0.009w      4 calls
DFH: AO-Met. Contraction            :      0.000u      0.000s      0.002w      4 calls
HF: Form core H                     :      0.000u      0.000s      0.006w      4 calls
HF: Form S/X                        :      0.000u      0.000s      0.001w      4 calls
HF: Guess                           :      0.217u      0.050s      0.153w      4 calls
SAD Guess                           :      0.200u      0.050s      0.147w      4 calls
HF: Form G                          :      3.383u      0.100s      2.137w     33 calls
RV: Form V                          :      3.350u      0.100s      2.124w     33 calls
Properties                          :      0.733u      0.017s      0.373w  18282 calls
Functional                          :      1.933u      0.050s      1.268w  18282 calls
V_xc                                :      0.600u      0.033s      0.428w  18282 calls
JK: D                               :      0.000u      0.000s      0.000w     33 calls
JK: USO2AO                          :      0.000u      0.000s      0.001w     33 calls
JK: JK                              :      0.017u      0.000s      0.003w     33 calls
DFH: compute_JK()                   :      0.017u      0.000s      0.003w     33 calls
DFH: Grabbing AOs                   :      0.000u      0.000s      0.000w     33 calls
DFH: compute_J                      :      0.017u      0.000s      0.002w     33 calls
JK: AO2USO                          :      0.000u      0.000s      0.000w     33 calls
HF: Form F                          :      0.000u      0.000s      0.000w     33 calls
HF: Form D                          :      0.000u      0.000s      0.000w     33 calls
HF: DIIS                            :      0.350u      0.017s      0.161w     29 calls
HF: Form C                          :      0.000u      0.000s      0.012w     29 calls

--------------------------------------------------------------------------------------
V: Grid                             :      0.217u      0.033s      0.144w      4 calls
| build grid                        :      0.133u      0.000s      0.088w      4 calls
| post-process grid                 :      0.083u      0.033s      0.055w      4 calls
DFH: sparsity prep                  :      0.050u      0.000s      0.028w      4 calls
| Libint2ERI::Libint2ERI            :      0.050u      0.000s      0.020w      4 calls
DFH: initialize()                   :      0.067u      0.017s      0.049w      4 calls
| Libint2ERI::Libint2ERI            :      0.017u      0.017s      0.012w      8 calls
| DFH: AO Construction              :      0.000u      0.000s      0.009w      4 calls
| DFH: AO-Met. Contraction          :      0.000u      0.000s      0.002w      4 calls
HF: Form core H                     :      0.000u      0.000s      0.006w      4 calls
HF: Form S/X                        :      0.000u      0.000s      0.001w      4 calls
HF: Guess                           :      0.217u      0.050s      0.153w      4 calls
| SAD Guess                         :      0.200u      0.050s      0.147w      4 calls
HF: Form G                          :      3.383u      0.100s      2.137w     33 calls
| RV: Form V                        :      3.350u      0.100s      2.124w     33 calls
| | Properties                      :      0.733u      0.017s      0.373w  18282 calls
| | Functional                      :      1.933u      0.050s      1.268w  18282 calls
| | V_xc                            :      0.600u      0.033s      0.428w  18282 calls
| JK: D                             :      0.000u      0.000s      0.000w     33 calls
| JK: USO2AO                        :      0.000u      0.000s      0.001w     33 calls
| JK: JK                            :      0.017u      0.000s      0.003w     33 calls
| | DFH: compute_JK()               :      0.017u      0.000s      0.003w     33 calls
| | | DFH: Grabbing AOs             :      0.000u      0.000s      0.000w     33 calls
| | | DFH: compute_J                :      0.017u      0.000s      0.002w     33 calls
| JK: AO2USO                        :      0.000u      0.000s      0.000w     33 calls
HF: Form F                          :      0.000u      0.000s      0.000w     33 calls
HF: Form D                          :      0.000u      0.000s      0.000w     33 calls
HF: DIIS                            :      0.350u      0.017s      0.161w     29 calls
HF: Form C                          :      0.000u      0.000s      0.012w     29 calls

**************************************************************************************

Host: TUF

Timers On : Mon Jul  7 10:37:35 2025
Timers Off: Mon Jul  7 10:37:46 2025

Wall Time:       10.97 seconds

                                                       Time (seconds)
Module                                       User      System        Wall        Calls
V: Grid                             :      0.517u      0.033s      0.338w      4 calls
build grid                          :      0.333u      0.017s      0.203w      4 calls
post-process grid                   :      0.183u      0.017s      0.133w      4 calls
DFH: sparsity prep                  :      0.067u      0.017s      0.047w      4 calls
Libint2ERI::Libint2ERI              :      0.083u      0.033s      0.058w     12 calls
DFH: initialize()                   :      0.167u      0.017s      0.103w      4 calls
DFH: AO Construction                :      0.033u      0.000s      0.020w      4 calls
DFH: AO-Met. Contraction            :      0.000u      0.000s      0.003w      4 calls
HF: Form core H                     :      0.000u      0.000s      0.010w      4 calls
HF: Form S/X                        :      0.000u      0.000s      0.001w      4 calls
HF: Guess                           :      0.383u      0.050s      0.237w      4 calls
SAD Guess                           :      0.333u      0.050s      0.225w      4 calls
HF: Form G                          :      7.717u      0.267s      4.788w     33 calls
RV: Form V                          :      7.717u      0.267s      4.761w     33 calls
Properties                          :      1.267u      0.033s      0.785w  18282 calls
Functional                          :      4.783u      0.183s      2.892w  18282 calls
V_xc                                :      1.367u      0.050s      0.961w  18282 calls
JK: D                               :      0.000u      0.000s      0.001w     33 calls
JK: USO2AO                          :      0.000u      0.000s      0.002w     33 calls
JK: JK                              :      0.000u      0.000s      0.006w     33 calls
DFH: compute_JK()                   :      0.000u      0.000s      0.005w     33 calls
DFH: Grabbing AOs                   :      0.000u      0.000s      0.000w     33 calls
DFH: compute_J                      :      0.000u      0.000s      0.004w     33 calls
JK: AO2USO                          :      0.000u      0.000s      0.001w     33 calls
HF: Form F                          :      0.000u      0.000s      0.001w     33 calls
HF: Form D                          :      0.000u      0.000s      0.001w     33 calls
HF: DIIS                            :      0.650u      0.033s      0.387w     29 calls
HF: Form C                          :      0.017u      0.000s      0.028w     29 calls

--------------------------------------------------------------------------------------
V: Grid                             :      0.517u      0.033s      0.338w      4 calls
| build grid                        :      0.333u      0.017s      0.203w      4 calls
| post-process grid                 :      0.183u      0.017s      0.133w      4 calls
DFH: sparsity prep                  :      0.067u      0.017s      0.047w      4 calls
| Libint2ERI::Libint2ERI            :      0.050u      0.017s      0.032w      4 calls
DFH: initialize()                   :      0.167u      0.017s      0.103w      4 calls
| Libint2ERI::Libint2ERI            :      0.033u      0.017s      0.025w      8 calls
| DFH: AO Construction              :      0.033u      0.000s      0.020w      4 calls
| DFH: AO-Met. Contraction          :      0.000u      0.000s      0.003w      4 calls
HF: Form core H                     :      0.000u      0.000s      0.010w      4 calls
HF: Form S/X                        :      0.000u      0.000s      0.001w      4 calls
HF: Guess                           :      0.383u      0.050s      0.237w      4 calls
| SAD Guess                         :      0.333u      0.050s      0.225w      4 calls
HF: Form G                          :      7.717u      0.267s      4.788w     33 calls
| RV: Form V                        :      7.717u      0.267s      4.761w     33 calls
| | Properties                      :      1.267u      0.033s      0.785w  18282 calls
| | Functional                      :      4.783u      0.183s      2.892w  18282 calls
| | V_xc                            :      1.367u      0.050s      0.961w  18282 calls
| JK: D                             :      0.000u      0.000s      0.001w     33 calls
| JK: USO2AO                        :      0.000u      0.000s      0.002w     33 calls
| JK: JK                            :      0.000u      0.000s      0.006w     33 calls
| | DFH: compute_JK()               :      0.000u      0.000s      0.005w     33 calls
| | | DFH: Grabbing AOs             :      0.000u      0.000s      0.000w     33 calls
| | | DFH: compute_J                :      0.000u      0.000s      0.004w     33 calls
| JK: AO2USO                        :      0.000u      0.000s      0.001w     33 calls
HF: Form F                          :      0.000u      0.000s      0.001w     33 calls
HF: Form D                          :      0.000u      0.000s      0.001w     33 calls
HF: DIIS                            :      0.650u      0.033s      0.387w     29 calls
HF: Form C                          :      0.017u      0.000s      0.028w     29 calls

**************************************************************************************

Host: TUF

Timers On : Mon Jul  7 10:37:58 2025
Timers Off: Mon Jul  7 10:38:09 2025

Wall Time:       11.06 seconds

                                                       Time (seconds)
Module                                       User      System        Wall        Calls
V: Grid                             :      0.517u      0.033s      0.335w      4 calls
build grid                          :      0.350u      0.017s      0.211w      4 calls
post-process grid                   :      0.167u      0.017s      0.123w      4 calls
DFH: sparsity prep                  :      0.067u      0.067s      0.072w      4 calls
Libint2ERI::Libint2ERI              :      0.133u      0.117s      0.099w     12 calls
DFH: initialize()                   :      0.200u      0.050s      0.143w      4 calls
DFH: AO Construction                :      0.050u      0.000s      0.023w      4 calls
DFH: AO-Met. Contraction            :      0.000u      0.000s      0.004w      4 calls
HF: Form core H                     :      0.000u      0.000s      0.007w      4 calls
HF: Form S/X                        :      0.000u      0.000s      0.001w      4 calls
HF: Guess                           :      0.400u      0.150s      0.327w      4 calls
SAD Guess                           :      0.383u      0.150s      0.312w      4 calls
HF: Form G                          :      8.283u      0.367s      5.179w     33 calls
RV: Form V                          :      8.267u      0.350s      5.147w     33 calls
Properties                          :      1.233u      0.067s      0.873w  18282 calls
Functional                          :      5.200u      0.217s      3.070w  18282 calls
V_xc                                :      1.600u      0.050s      1.067w  18282 calls
JK: D                               :      0.000u      0.000s      0.001w     33 calls
JK: USO2AO                          :      0.000u      0.000s      0.002w     33 calls
JK: JK                              :      0.000u      0.017s      0.007w     33 calls
DFH: compute_JK()                   :      0.000u      0.000s      0.006w     33 calls
DFH: Grabbing AOs                   :      0.000u      0.000s      0.000w     33 calls
DFH: compute_J                      :      0.000u      0.000s      0.005w     33 calls
JK: AO2USO                          :      0.000u      0.000s      0.001w     33 calls
HF: Form F                          :      0.000u      0.000s      0.001w     33 calls
HF: Form D                          :      0.000u      0.000s      0.001w     33 calls
HF: DIIS                            :      0.600u      0.017s      0.366w     29 calls
[...]
V_xc                                :      0.850u      0.050s      0.451w  18282 calls
JK: D                               :      0.000u      0.000s      0.000w     33 calls
JK: USO2AO                          :      0.000u      0.000s      0.001w     33 calls
JK: JK                              :      0.000u      0.000s      0.003w     33 calls
DFH: compute_JK()                   :      0.000u      0.000s      0.003w     33 calls
DFH: Grabbing AOs                   :      0.000u      0.000s      0.000w     33 calls
DFH: compute_J                      :      0.000u      0.000s      0.002w     33 calls
JK: AO2USO                          :      0.000u      0.000s      0.000w     33 calls
HF: Form F                          :      0.000u      0.000s      0.000w     33 calls
HF: Form D                          :      0.000u      0.000s      0.000w     33 calls
HF: DIIS                            :      0.167u      0.033s      0.211w     29 calls
HF: Form C                          :      0.000u      0.000s      0.012w     29 calls

--------------------------------------------------------------------------------------
V: Grid                             :      0.233u      0.017s      0.157w      4 calls
| build grid                        :      0.133u      0.000s      0.093w      4 calls
| post-process grid                 :      0.100u      0.017s      0.064w      4 calls
DFH: sparsity prep                  :      0.000u      0.017s      0.038w      4 calls
| Libint2ERI::Libint2ERI            :      0.000u      0.017s      0.030w      4 calls
DFH: initialize()                   :      0.100u      0.017s      0.066w      4 calls
| Libint2ERI::Libint2ERI            :      0.000u      0.000s      0.017w      8 calls
| DFH: AO Construction              :      0.050u      0.000s      0.011w      4 calls
| DFH: AO-Met. Contraction          :      0.000u      0.000s      0.002w      4 calls
HF: Form core H                     :      0.000u      0.000s      0.005w      4 calls
HF: Form S/X                        :      0.000u      0.000s      0.001w      4 calls
HF: Guess                           :      0.183u      0.067s      0.144w      4 calls
| SAD Guess                         :      0.183u      0.067s      0.138w      4 calls
HF: Form G                          :      3.667u      0.117s      2.230w     33 calls
| RV: Form V                        :      3.633u      0.117s      2.216w     33 calls
| | Properties                      :      0.717u      0.017s      0.385w  18282 calls
| | Functional                      :      2.000u      0.050s      1.324w  18282 calls
| | V_xc                            :      0.850u      0.050s      0.451w  18282 calls
| JK: D                             :      0.000u      0.000s      0.000w     33 calls
| JK: USO2AO                        :      0.000u      0.000s      0.001w     33 calls
| JK: JK                            :      0.000u      0.000s      0.003w     33 calls
| | DFH: compute_JK()               :      0.000u      0.000s      0.003w     33 calls
| | | DFH: Grabbing AOs             :      0.000u      0.000s      0.000w     33 calls
| | | DFH: compute_J                :      0.000u      0.000s      0.002w     33 calls
| JK: AO2USO                        :      0.000u      0.000s      0.000w     33 calls
HF: Form F                          :      0.000u      0.000s      0.000w     33 calls
HF: Form D                          :      0.000u      0.000s      0.000w     33 calls
HF: DIIS                            :      0.167u      0.033s      0.211w     29 calls
HF: Form C                          :      0.000u      0.000s      0.012w     29 calls

**************************************************************************************

Host: TUF

Timers On : Mon Jul  7 16:02:52 2025
Timers Off: Mon Jul  7 16:02:57 2025

Wall Time:        5.19 seconds

                                                       Time (seconds)
Module                                       User      System        Wall        Calls
V: Grid                             :      0.267u      0.017s      0.184w      4 calls
build grid                          :      0.183u      0.000s      0.117w      4 calls
post-process grid                   :      0.083u      0.017s      0.067w      4 calls
DFH: sparsity prep                  :      0.033u      0.000s      0.025w      4 calls
Libint2ERI::Libint2ERI              :      0.017u      0.017s      0.029w     12 calls
DFH: initialize()                   :      0.067u      0.017s      0.062w      4 calls
DFH: AO Construction                :      0.033u      0.000s      0.009w      4 calls
DFH: AO-Met. Contraction            :      0.000u      0.000s      0.002w      4 calls
HF: Form core H                     :      0.000u      0.000s      0.004w      4 calls
HF: Form S/X                        :      0.000u      0.000s      0.001w      4 calls
HF: Guess                           :      0.183u      0.033s      0.125w      4 calls
SAD Guess                           :      0.150u      0.033s      0.118w      4 calls
HF: Form G                          :      3.500u      0.117s      2.188w     33 calls
RV: Form V                          :      3.483u      0.117s      2.174w     33 calls
Properties                          :      0.567u      0.017s      0.375w  18282 calls
Functional                          :      2.217u      0.067s      1.299w  18282 calls
V_xc                                :      0.600u      0.033s      0.446w  18282 calls
JK: D                               :      0.000u      0.000s      0.000w     33 calls
JK: USO2AO                          :      0.000u      0.000s      0.001w     33 calls
JK: JK                              :      0.000u      0.000s      0.003w     33 calls
DFH: compute_JK()                   :      0.000u      0.000s      0.003w     33 calls
DFH: Grabbing AOs                   :      0.000u      0.000s      0.000w     33 calls
DFH: compute_J                      :      0.000u      0.000s      0.002w     33 calls
JK: AO2USO                          :      0.000u      0.000s      0.000w     33 calls
HF: Form F                          :      0.000u      0.000s      0.000w     33 calls
HF: Form D                          :      0.000u      0.000s      0.000w     33 calls
HF: DIIS                            :      0.300u      0.033s      0.168w     29 calls
HF: Form C                          :      0.000u      0.000s      0.013w     29 calls

--------------------------------------------------------------------------------------
V: Grid                             :      0.267u      0.017s      0.184w      4 calls
| build grid                        :      0.183u      0.000s      0.117w      4 calls
| post-process grid                 :      0.083u      0.017s      0.067w      4 calls
DFH: sparsity prep                  :      0.033u      0.000s      0.025w      4 calls
| Libint2ERI::Libint2ERI            :      0.000u      0.000s      0.017w      4 calls
DFH: initialize()                   :      0.067u      0.017s      0.062w      4 calls
| Libint2ERI::Libint2ERI            :      0.017u      0.017s      0.012w      8 calls
| DFH: AO Construction              :      0.033u      0.000s      0.009w      4 calls
| DFH: AO-Met. Contraction          :      0.000u      0.000s      0.002w      4 calls
HF: Form core H                     :      0.000u      0.000s      0.004w      4 calls
HF: Form S/X                        :      0.000u      0.000s      0.001w      4 calls
HF: Guess                           :      0.183u      0.033s      0.125w      4 calls
| SAD Guess                         :      0.150u      0.033s      0.118w      4 calls
HF: Form G                          :      3.500u      0.117s      2.188w     33 calls
| RV: Form V                        :      3.483u      0.117s      2.174w     33 calls
| | Properties                      :      0.567u      0.017s      0.375w  18282 calls
| | Functional                      :      2.217u      0.067s      1.299w  18282 calls
| | V_xc                            :      0.600u      0.033s      0.446w  18282 calls
| JK: D                             :      0.000u      0.000s      0.000w     33 calls
| JK: USO2AO                        :      0.000u      0.000s      0.001w     33 calls
| JK: JK                            :      0.000u      0.000s      0.003w     33 calls
| | DFH: compute_JK()               :      0.000u      0.000s      0.003w     33 calls
| | | DFH: Grabbing AOs             :      0.000u      0.000s      0.000w     33 calls
| | | DFH: compute_J                :      0.000u      0.000s      0.002w     33 calls
| JK: AO2USO                        :      0.000u      0.000s      0.000w     33 calls
HF: Form F                          :      0.000u      0.000s      0.000w     33 calls
HF: Form D                          :      0.000u      0.000s      0.000w     33 calls
HF: DIIS                            :      0.300u      0.033s      0.168w     29 calls
HF: Form C                          :      0.000u      0.000s      0.013w     29 calls

**************************************************************************************

Host: TUF

Timers On : Tue Jul  8 14:20:25 2025
Timers Off: Tue Jul  8 14:20:33 2025

Wall Time:        7.66 seconds

                                                       Time (seconds)
Module                                       User      System        Wall        Calls
V: Grid                             :      0.283u      0.033s      0.183w      2 calls
build grid                          :      0.183u      0.017s      0.109w      2 calls
post-process grid                   :      0.100u      0.017s      0.073w      2 calls
DFH: sparsity prep                  :      0.033u      0.033s      0.053w      2 calls
Libint2ERI::Libint2ERI              :      0.033u      0.050s      0.060w      6 calls
DFH: initialize()                   :      0.100u      0.017s      0.081w      2 calls
DFH: AO Construction                :      0.017u      0.000s      0.016w      2 calls
DFH: AO-Met. Contraction            :      0.017u      0.000s      0.002w      2 calls
HF: Form core H                     :      0.000u      0.000s      0.008w      2 calls
HF: Form S/X                        :      0.000u      0.000s      0.002w      2 calls
HF: Guess                           :      0.183u      0.033s      0.146w      2 calls
SAD Guess                           :      0.183u      0.033s      0.140w      2 calls
HF: Form G                          :      3.250u      0.167s      2.058w     17 calls
RV: Form V                          :      3.250u      0.167s      2.042w     17 calls
Properties                          :      0.683u      0.050s      0.444w   9418 calls
Functional                          :      1.483u      0.067s      1.004w   9418 calls
V_xc                                :      0.933u      0.033s      0.525w   9418 calls
JK: D                               :      0.000u      0.000s      0.000w     17 calls
JK: USO2AO                          :      0.000u      0.000s      0.001w     17 calls
JK: JK                              :      0.000u      0.000s      0.004w     17 calls
DFH: compute_JK()                   :      0.000u      0.000s      0.004w     17 calls
DFH: Grabbing AOs                   :      0.000u      0.000s      0.000w     17 calls
DFH: compute_J                      :      0.000u      0.000s      0.003w     17 calls
JK: AO2USO                          :      0.000u      0.000s      0.001w     17 calls
HF: Form F                          :      0.000u      0.000s      0.001w     17 calls
HF: Form D                          :      0.000u      0.000s      0.000w     17 calls
HF: DIIS                            :      0.450u      0.083s      0.359w     15 calls
HF: Form C                          :      0.033u      0.000s      0.016w     15 calls

--------------------------------------------------------------------------------------
V: Grid                             :      0.283u      0.033s      0.183w      2 calls
| build grid                        :      0.183u      0.017s      0.109w      2 calls
| post-process grid                 :      0.100u      0.017s      0.073w      2 calls
DFH: sparsity prep                  :      0.033u      0.033s      0.053w      2 calls
| Libint2ERI::Libint2ERI            :      0.033u      0.033s      0.042w      2 calls
DFH: initialize()                   :      0.100u      0.017s      0.081w      2 calls
| Libint2ERI::Libint2ERI            :      0.000u      0.017s      0.018w      4 calls
| DFH: AO Construction              :      0.017u      0.000s      0.016w      2 calls
| DFH: AO-Met. Contraction          :      0.017u      0.000s      0.002w      2 calls
HF: Form core H                     :      0.000u      0.000s      0.008w      2 calls
HF: Form S/X                        :      0.000u      0.000s      0.002w      2 calls
HF: Guess                           :      0.183u      0.033s      0.146w      2 calls
| SAD Guess                         :      0.183u      0.033s      0.140w      2 calls
HF: Form G                          :      3.250u      0.167s      2.058w     17 calls
| RV: Form V                        :      3.250u      0.167s      2.042w     17 calls
| | Properties                      :      0.683u      0.050s      0.444w   9418 calls
| | Functional                      :      1.483u      0.067s      1.004w   9418 calls
| | V_xc                            :      0.933u      0.033s      0.525w   9418 calls
| JK: D                             :      0.000u      0.000s      0.000w     17 calls
| JK: USO2AO                        :      0.000u      0.000s      0.001w     17 calls
| JK: JK                            :      0.000u      0.000s      0.004w     17 calls
| | DFH: compute_JK()               :      0.000u      0.000s      0.004w     17 calls
| | | DFH: Grabbing AOs             :      0.000u      0.000s      0.000w     17 calls
| | | DFH: compute_J                :      0.000u      0.000s      0.003w     17 calls
| JK: AO2USO                        :      0.000u      0.000s      0.001w     17 calls
HF: Form F                          :      0.000u      0.000s      0.001w     17 calls
HF: Form D                          :      0.000u      0.000s      0.000w     17 calls
HF: DIIS                            :      0.450u      0.083s      0.359w     15 calls
HF: Form C                          :      0.033u      0.000s      0.016w     15 calls

**************************************************************************************

Host: TUF

Timers On : Tue Jul  8 14:35:39 2025
Timers Off: Tue Jul  8 14:35:51 2025

Wall Time:       12.31 seconds

                                                       Time (seconds)
Module                                       User      System        Wall        Calls
V: Grid                             :      0.617u      0.033s      0.393w      4 calls
build grid                          :      0.367u      0.017s      0.235w      4 calls
post-process grid                   :      0.250u      0.017s      0.157w      4 calls
DFH: sparsity prep                  :      0.067u      0.017s      0.060w      4 calls
Libint2ERI::Libint2ERI              :      0.067u      0.033s      0.069w     12 calls
DFH: initialize()                   :      0.167u      0.033s      0.130w      4 calls
DFH: AO Construction                :      0.017u      0.017s      0.025w      4 calls
DFH: AO-Met. Contraction            :      0.000u      0.000s      0.004w      4 calls
HF: Form core H                     :      0.000u      0.000s      0.010w      4 calls
HF: Form S/X                        :      0.000u      0.000s      0.002w      4 calls
HF: Guess                           :      0.467u      0.050s      0.308w      4 calls
SAD Guess                           :      0.433u      0.050s      0.293w      4 calls
HF: Form G                          :      7.933u      0.400s      5.050w     33 calls
RV: Form V                          :      7.900u      0.400s      5.016w     33 calls
Properties                          :      1.767u      0.067s      0.948w  18282 calls
Functional                          :      4.100u      0.200s      2.778w  18282 calls
V_xc                                :      1.783u      0.100s      1.149w  18282 calls
JK: D                               :      0.000u      0.000s      0.001w     33 calls
JK: USO2AO                          :      0.017u      0.000s      0.002w     33 calls
JK: JK                              :      0.000u      0.000s      0.007w     33 calls
DFH: compute_JK()                   :      0.000u      0.000s      0.006w     33 calls
DFH: Grabbing AOs                   :      0.000u      0.000s      0.000w     33 calls
DFH: compute_J                      :      0.000u      0.000s      0.005w     33 calls
JK: AO2USO                          :      0.000u      0.000s      0.001w     33 calls
HF: Form F                          :      0.000u      0.000s      0.001w     33 calls
HF: Form D                          :      0.000u      0.000s      0.001w     33 calls
HF: DIIS                            :      0.633u      0.050s      0.454w     29 calls
HF: Form C                          :      0.050u      0.000s      0.033w     29 calls

--------------------------------------------------------------------------------------
V: Grid                             :      0.617u      0.033s      0.393w      4 calls
| build grid                        :      0.367u      0.017s      0.235w      4 calls
| post-process grid                 :      0.250u      0.017s      0.157w      4 calls
DFH: sparsity prep                  :      0.067u      0.017s      0.060w      4 calls
| Libint2ERI::Libint2ERI            :      0.033u      0.017s      0.040w      4 calls
DFH: initialize()                   :      0.167u      0.033s      0.130w      4 calls
| Libint2ERI::Libint2ERI            :      0.033u      0.017s      0.029w      8 calls
| DFH: AO Construction              :      0.017u      0.017s      0.025w      4 calls
| DFH: AO-Met. Contraction          :      0.000u      0.000s      0.004w      4 calls
HF: Form core H                     :      0.000u      0.000s      0.010w      4 calls
HF: Form S/X                        :      0.000u      0.000s      0.002w      4 calls
HF: Guess                           :      0.467u      0.050s      0.308w      4 calls
| SAD Guess                         :      0.433u      0.050s      0.293w      4 calls
HF: Form G                          :      7.933u      0.400s      5.050w     33 calls
| RV: Form V                        :      7.900u      0.400s      5.016w     33 calls
| | Properties                      :      1.767u      0.067s      0.948w  18282 calls
| | Functional                      :      4.100u      0.200s      2.778w  18282 calls
| | V_xc                            :      1.783u      0.100s      1.149w  18282 calls
| JK: D                             :      0.000u      0.000s      0.001w     33 calls
| JK: USO2AO                        :      0.017u      0.000s      0.002w     33 calls
| JK: JK                            :      0.000u      0.000s      0.007w     33 calls
| | DFH: compute_JK()               :      0.000u      0.000s      0.006w     33 calls
| | | DFH: Grabbing AOs             :      0.000u      0.000s      0.000w     33 calls
| | | DFH: compute_J                :      0.000u      0.000s      0.005w     33 calls
| JK: AO2USO                        :      0.000u      0.000s      0.001w     33 calls
HF: Form F                          :      0.000u      0.000s      0.001w     33 calls
HF: Form D                          :      0.000u      0.000s      0.001w     33 calls
HF: DIIS                            :      0.633u      0.050s      0.454w     29 calls
HF: Form C                          :      0.050u      0.000s      0.033w     29 calls

**************************************************************************************
