
Host: TUF

Timers On : Thu Jul 17 13:56:22 2025
Timers Off: Thu Jul 17 13:56:37 2025

Wall Time:       14.80 seconds

                                                       Time (seconds)
Module                                       User      System        Wall        Calls

--------------------------------------------------------------------------------------

**************************************************************************************

Host: TUF

Timers On : Thu Jul 17 14:00:00 2025
Timers Off: Thu Jul 17 14:00:00 2025

Wall Time:        0.47 seconds

                                                       Time (seconds)
Module                                       User      System        Wall        Calls

--------------------------------------------------------------------------------------

**************************************************************************************

Host: TUF

Timers On : Thu Jul 17 14:00:10 2025
Timers Off: Thu Jul 17 14:00:25 2025

Wall Time:       14.48 seconds

                                                       Time (seconds)
Module                                       User      System        Wall        Calls

--------------------------------------------------------------------------------------

**************************************************************************************

Host: TUF

Timers On : Thu Jul 17 14:03:20 2025
Timers Off: Thu Jul 17 14:03:20 2025

Wall Time:        0.40 seconds

                                                       Time (seconds)
Module                                       User      System        Wall        Calls

--------------------------------------------------------------------------------------

**************************************************************************************

Host: TUF

Timers On : Thu Jul 17 14:03:29 2025
Timers Off: Thu Jul 17 14:03:43 2025

Wall Time:       14.31 seconds

                                                       Time (seconds)
Module                                       User      System        Wall        Calls

--------------------------------------------------------------------------------------

**************************************************************************************

Host: TUF

Timers On : Thu Jul 17 14:04:11 2025
Timers Off: Thu Jul 17 14:04:25 2025

Wall Time:       14.37 seconds

                                                       Time (seconds)
Module                                       User      System        Wall        Calls

--------------------------------------------------------------------------------------

**************************************************************************************

Host: TUF

Timers On : Thu Jul 17 14:04:27 2025
Timers Off: Thu Jul 17 14:04:42 2025

Wall Time:       14.90 seconds

                                                       Time (seconds)
Module                                       User      System        Wall        Calls

--------------------------------------------------------------------------------------

**************************************************************************************

Host: TUF

Timers On : Thu Jul 17 14:06:02 2025
Timers Off: Thu Jul 17 14:06:17 2025

Wall Time:       14.86 seconds

                                                       Time (seconds)
Module                                       User      System        Wall        Calls

--------------------------------------------------------------------------------------

**************************************************************************************

Host: TUF

Timers On : Thu Jul 17 14:07:54 2025
Timers Off: Thu Jul 17 14:08:10 2025

Wall Time:       15.12 seconds

                                                       Time (seconds)
Module                                       User      System        Wall        Calls

--------------------------------------------------------------------------------------

**************************************************************************************

Host: TUF

Timers On : Thu Jul 17 14:09:22 2025
Timers Off: Thu Jul 17 14:09:23 2025

Wall Time:        0.44 seconds

                                                       Time (seconds)
Module                                       User      System        Wall        Calls

--------------------------------------------------------------------------------------

**************************************************************************************

Host: TUF

Timers On : Thu Jul 17 14:09:32 2025
Timers Off: Thu Jul 17 14:09:46 2025

Wall Time:       14.44 seconds

                                                       Time (seconds)
Module                                       User      System        Wall        Calls

--------------------------------------------------------------------------------------

**************************************************************************************

Host: TUF

Timers On : Thu Jul 17 14:10:10 2025
Timers Off: Thu Jul 17 14:10:10 2025

Wall Time:        0.43 seconds

                                                       Time (seconds)
Module                                       User      System        Wall        Calls

--------------------------------------------------------------------------------------

**************************************************************************************

Host: TUF

Timers On : Thu Jul 17 14:10:16 2025
Timers Off: Thu Jul 17 14:10:30 2025

Wall Time:       14.82 seconds

                                                       Time (seconds)
Module                                       User      System        Wall        Calls

--------------------------------------------------------------------------------------

**************************************************************************************

Host: TUF

Timers On : Thu Jul 17 14:10:40 2025
Timers Off: Thu Jul 17 14:10:55 2025

Wall Time:       15.13 seconds

                                                       Time (seconds)
Module                                       User      System        Wall        Calls

--------------------------------------------------------------------------------------

**************************************************************************************

Host: TUF

Timers On : Thu Jul 17 14:11:22 2025
Timers Off: Thu Jul 17 14:11:23 2025

Wall Time:        0.44 seconds

                                                       Time (seconds)
Module                                       User      System        Wall        Calls

--------------------------------------------------------------------------------------

**************************************************************************************

Host: TUF

Timers On : Thu Jul 17 14:11:28 2025
Timers Off: Thu Jul 17 14:11:43 2025

Wall Time:       14.99 seconds

                                                       Time (seconds)
Module                                       User      System        Wall        Calls

--------------------------------------------------------------------------------------

**************************************************************************************

Host: TUF

Timers On : Thu Jul 17 14:14:37 2025
Timers Off: Thu Jul 17 14:14:37 2025

Wall Time:        0.42 seconds

                                                       Time (seconds)
Module                                       User      System        Wall        Calls

--------------------------------------------------------------------------------------

**************************************************************************************

Host: TUF

Timers On : Thu Jul 17 14:14:47 2025
Timers Off: Thu Jul 17 14:15:02 2025

Wall Time:       14.58 seconds

                                                       Time (seconds)
Module                                       User      System        Wall        Calls

--------------------------------------------------------------------------------------

**************************************************************************************

Host: TUF

Timers On : Thu Jul 17 14:15:19 2025
Timers Off: Thu Jul 17 14:15:33 2025

Wall Time:       14.67 seconds

                                                       Time (seconds)
Module                                       User      System        Wall        Calls

--------------------------------------------------------------------------------------

**************************************************************************************

Host: TUF

Timers On : Thu Jul 17 14:17:55 2025
Timers Off: Thu Jul 17 14:18:09 2025

Wall Time:       14.60 seconds

                                                       Time (seconds)
Module                                       User      System        Wall        Calls

--------------------------------------------------------------------------------------

**************************************************************************************

Host: TUF

Timers On : Thu Jul 17 15:04:53 2025
Timers Off: Thu Jul 17 15:05:08 2025

Wall Time:       15.02 seconds

                                                       Time (seconds)
Module                                       User      System        Wall        Calls

--------------------------------------------------------------------------------------

**************************************************************************************

Host: TUF

Timers On : Thu Jul 17 15:07:34 2025
Timers Off: Thu Jul 17 15:07:34 2025

Wall Time:        0.43 seconds

                                                       Time (seconds)
Module                                       User      System        Wall        Calls

--------------------------------------------------------------------------------------

**************************************************************************************

Host: TUF

Timers On : Thu Jul 17 15:07:41 2025
Timers Off: Thu Jul 17 15:07:55 2025

Wall Time:       13.36 seconds

                                                       Time (seconds)
Module                                       User      System        Wall        Calls

--------------------------------------------------------------------------------------

**************************************************************************************

Host: TUF

Timers On : Thu Jul 17 15:08:22 2025
Timers Off: Thu Jul 17 15:08:37 2025

Wall Time:       15.13 seconds

                                                       Time (seconds)
Module                                       User      System        Wall        Calls

--------------------------------------------------------------------------------------

**************************************************************************************

Host: TUF

Timers On : Thu Jul 17 15:09:01 2025
Timers Off: Thu Jul 17 15:09:16 2025

Wall Time:       14.56 seconds

                                                       Time (seconds)
Module                                       User      System        Wall        Calls

--------------------------------------------------------------------------------------

**************************************************************************************

Host: TUF

Timers On : Thu Jul 17 15:09:49 2025
Timers Off: Thu Jul 17 15:09:50 2025

Wall Time:        0.44 seconds

                                                       Time (seconds)
Module                                       User      System        Wall        Calls

--------------------------------------------------------------------------------------

**************************************************************************************

Host: TUF

Timers On : Thu Jul 17 15:09:55 2025
Timers Off: Thu Jul 17 15:10:10 2025

Wall Time:       14.95 seconds

                                                       Time (seconds)
Module                                       User      System        Wall        Calls

--------------------------------------------------------------------------------------

**************************************************************************************

Host: TUF

Timers On : Thu Jul 17 17:07:56 2025
Timers Off: Thu Jul 17 17:07:57 2025

Wall Time:        1.11 seconds

                                                       Time (seconds)
Module                                       User      System        Wall        Calls

--------------------------------------------------------------------------------------

**************************************************************************************

Host: TUF

Timers On : Thu Jul 17 17:08:12 2025
Timers Off: Thu Jul 17 17:08:14 2025

Wall Time:        1.45 seconds

                                                       Time (seconds)
Module                                       User      System        Wall        Calls

--------------------------------------------------------------------------------------

**************************************************************************************

Host: TUF

Timers On : Thu Jul 17 17:09:32 2025
Timers Off: Thu Jul 17 17:09:38 2025

Wall Time:        5.98 seconds

                                                       Time (seconds)
Module                                       User      System        Wall        Calls

--------------------------------------------------------------------------------------

**************************************************************************************

Host: TUF

Timers On : Thu Jul 17 17:10:56 2025
Timers Off: Thu Jul 17 17:11:02 2025

Wall Time:        5.38 seconds

                                                       Time (seconds)
Module                                       User      System        Wall        Calls

--------------------------------------------------------------------------------------

**************************************************************************************

Host: TUF

Timers On : Thu Jul 17 17:11:08 2025
Timers Off: Thu Jul 17 17:11:14 2025

Wall Time:        6.01 seconds

                                                       Time (seconds)
Module                                       User      System        Wall        Calls

--------------------------------------------------------------------------------------

**************************************************************************************

Host: TUF

Timers On : Thu Jul 17 17:11:47 2025
Timers Off: Thu Jul 17 17:11:52 2025

Wall Time:        5.38 seconds

                                                       Time (seconds)
Module                                       User      System        Wall        Calls

--------------------------------------------------------------------------------------

**************************************************************************************

Host: TUF

Timers On : Thu Jul 17 17:11:57 2025
Timers Off: Thu Jul 17 17:12:02 2025

Wall Time:        5.39 seconds

                                                       Time (seconds)
Module                                       User      System        Wall        Calls

--------------------------------------------------------------------------------------

**************************************************************************************

Host: TUF

Timers On : Thu Jul 17 17:13:03 2025
Timers Off: Thu Jul 17 17:13:04 2025

Wall Time:        0.73 seconds

                                                       Time (seconds)
Module                                       User      System        Wall        Calls

--------------------------------------------------------------------------------------

**************************************************************************************

Host: TUF

Timers On : Thu Jul 17 17:13:18 2025
Timers Off: Thu Jul 17 17:13:18 2025

Wall Time:        0.79 seconds

                                                       Time (seconds)
Module                                       User      System        Wall        Calls

--------------------------------------------------------------------------------------

**************************************************************************************

Host: TUF

Timers On : Thu Jul 17 17:14:34 2025
Timers Off: Thu Jul 17 17:14:53 2025

Wall Time:       18.71 seconds

                                                       Time (seconds)
Module                                       User      System        Wall        Calls

--------------------------------------------------------------------------------------

**************************************************************************************

Host: TUF

Timers On : Thu Jul 17 17:14:55 2025
Timers Off: Thu Jul 17 17:14:56 2025

Wall Time:        0.89 seconds

                                                       Time (seconds)
Module                                       User      System        Wall        Calls

--------------------------------------------------------------------------------------

**************************************************************************************

Host: TUF

Timers On : Thu Jul 17 17:15:08 2025
Timers Off: Thu Jul 17 17:15:10 2025

Wall Time:        1.71 seconds

                                                       Time (seconds)
Module                                       User      System        Wall        Calls

--------------------------------------------------------------------------------------

**************************************************************************************

Host: TUF

Timers On : Thu Jul 17 17:16:20 2025
Timers Off: Thu Jul 17 17:16:22 2025

Wall Time:        1.69 seconds

                                                       Time (seconds)
Module                                       User      System        Wall        Calls

--------------------------------------------------------------------------------------

**************************************************************************************

Host: TUF

Timers On : Thu Jul 17 17:30:56 2025
Timers Off: Thu Jul 17 17:30:56 2025

Wall Time:        0.82 seconds

                                                       Time (seconds)
Module                                       User      System        Wall        Calls

--------------------------------------------------------------------------------------

**************************************************************************************

Host: TUF

Timers On : Thu Jul 17 17:34:18 2025
Timers Off: Thu Jul 17 17:34:19 2025

Wall Time:        0.80 seconds

                                                       Time (seconds)
Module                                       User      System        Wall        Calls

--------------------------------------------------------------------------------------

**************************************************************************************

Host: TUF

Timers On : Thu Jul 17 17:34:55 2025
Timers Off: Thu Jul 17 17:34:55 2025

Wall Time:        0.80 seconds

                                                       Time (seconds)
Module                                       User      System        Wall        Calls

--------------------------------------------------------------------------------------

**************************************************************************************

Host: TUF

Timers On : Thu Jul 17 17:37:25 2025
Timers Off: Thu Jul 17 17:37:26 2025

Wall Time:        0.84 seconds

                                                       Time (seconds)
Module                                       User      System        Wall        Calls

--------------------------------------------------------------------------------------

**************************************************************************************

Host: TUF

Timers On : Thu Jul 17 17:39:27 2025
Timers Off: Thu Jul 17 17:39:28 2025

Wall Time:        0.86 seconds

                                                       Time (seconds)
Module                                       User      System        Wall        Calls

--------------------------------------------------------------------------------------

**************************************************************************************

Host: TUF

Timers On : Thu Jul 17 17:41:30 2025
Timers Off: Thu Jul 17 17:41:30 2025

Wall Time:        0.42 seconds

                                                       Time (seconds)
Module                                       User      System        Wall        Calls

--------------------------------------------------------------------------------------

**************************************************************************************

Host: TUF

Timers On : Thu Jul 17 17:41:37 2025
Timers Off: Thu Jul 17 17:41:48 2025

Wall Time:       11.40 seconds

                                                       Time (seconds)
Module                                       User      System        Wall        Calls

--------------------------------------------------------------------------------------

**************************************************************************************

Host: TUF

Timers On : Thu Jul 17 17:44:33 2025
Timers Off: Thu Jul 17 17:44:34 2025

Wall Time:        0.43 seconds

                                                       Time (seconds)
Module                                       User      System        Wall        Calls

--------------------------------------------------------------------------------------

**************************************************************************************

Host: TUF

Timers On : Thu Jul 17 17:44:39 2025
Timers Off: Thu Jul 17 17:44:54 2025

Wall Time:       15.25 seconds

                                                       Time (seconds)
Module                                       User      System        Wall        Calls

--------------------------------------------------------------------------------------

**************************************************************************************

Host: TUF

Timers On : Thu Jul 17 17:45:20 2025
Timers Off: Thu Jul 17 17:45:21 2025

Wall Time:        0.43 seconds

                                                       Time (seconds)
Module                                       User      System        Wall        Calls

--------------------------------------------------------------------------------------

**************************************************************************************

Host: TUF

Timers On : Thu Jul 17 17:45:28 2025
Timers Off: Thu Jul 17 17:45:43 2025

Wall Time:       15.15 seconds

                                                       Time (seconds)
Module                                       User      System        Wall        Calls

--------------------------------------------------------------------------------------

**************************************************************************************

Host: TUF

Timers On : Thu Jul 17 17:46:13 2025
Timers Off: Thu Jul 17 17:46:28 2025

Wall Time:       15.12 seconds

                                                       Time (seconds)
Module                                       User      System        Wall        Calls

--------------------------------------------------------------------------------------

**************************************************************************************

Host: TUF

Timers On : Thu Jul 17 17:46:41 2025
Timers Off: Thu Jul 17 17:46:41 2025

Wall Time:        0.85 seconds

                                                       Time (seconds)
Module                                       User      System        Wall        Calls

--------------------------------------------------------------------------------------

**************************************************************************************

Host: TUF

Timers On : Thu Jul 17 17:51:18 2025
Timers Off: Thu Jul 17 17:51:18 2025

Wall Time:        0.84 seconds

                                                       Time (seconds)
Module                                       User      System        Wall        Calls

--------------------------------------------------------------------------------------

**************************************************************************************

Host: TUF

Timers On : Thu Jul 17 17:51:21 2025
Timers Off: Thu Jul 17 17:51:22 2025

Wall Time:        0.84 seconds

                                                       Time (seconds)
Module                                       User      System        Wall        Calls

--------------------------------------------------------------------------------------

**************************************************************************************

Host: TUF

Timers On : Thu Jul 17 17:51:45 2025
Timers Off: Thu Jul 17 17:51:45 2025

Wall Time:        0.84 seconds

                                                       Time (seconds)
Module                                       User      System        Wall        Calls

--------------------------------------------------------------------------------------

**************************************************************************************

Host: TUF

Timers On : Thu Jul 17 17:52:11 2025
Timers Off: Thu Jul 17 17:52:12 2025

Wall Time:        1.65 seconds

                                                       Time (seconds)
Module                                       User      System        Wall        Calls
V: Grid                             :      0.033u      0.017s      0.022w      1 calls
build grid                          :      0.017u      0.000s      0.014w      1 calls
post-process grid                   :      0.017u      0.017s      0.009w      1 calls
DFH: sparsity prep                  :      0.000u      0.000s      0.007w      1 calls
Libint2ERI::Libint2ERI              :      0.000u      0.000s      0.009w      3 calls
DFH: initialize()                   :      0.017u      0.000s      0.012w      1 calls
DFH: AO Construction                :      0.000u      0.000s      0.001w      1 calls
DFH: AO-Met. Contraction            :      0.000u      0.000s      0.000w      1 calls
HF: Form core H                     :      0.000u      0.000s      0.001w      1 calls
HF: Form S/X                        :      0.000u      0.000s      0.000w      1 calls
HF: Guess                           :      0.033u      0.000s      0.019w      1 calls
SAD Guess                           :      0.033u      0.000s      0.018w      1 calls
HF: Form G                          :      0.950u      0.033s      0.578w      9 calls
RV: Form V                          :      0.950u      0.033s      0.576w      9 calls
Properties                          :      0.067u      0.000s      0.058w   4986 calls
Functional                          :      0.783u      0.033s      0.445w   4986 calls
V_xc                                :      0.100u      0.000s      0.065w   4986 calls
JK: D                               :      0.000u      0.000s      0.000w      9 calls
JK: USO2AO                          :      0.000u      0.000s      0.000w      9 calls
JK: JK                              :      0.000u      0.000s      0.000w      9 calls
DFH: compute_JK()                   :      0.000u      0.000s      0.000w      9 calls
DFH: Grabbing AOs                   :      0.000u      0.000s      0.000w      9 calls
DFH: compute_J                      :      0.000u      0.000s      0.000w      9 calls
JK: AO2USO                          :      0.000u      0.000s      0.000w      9 calls
HF: Form F                          :      0.000u      0.000s      0.000w      9 calls
HF: Form D                          :      0.000u      0.000s      0.000w      9 calls
HF: DIIS                            :      0.050u      0.000s      0.048w      8 calls
HF: Form C                          :      0.000u      0.000s      0.002w      8 calls

--------------------------------------------------------------------------------------
V: Grid                             :      0.033u      0.017s      0.022w      1 calls
| build grid                        :      0.017u      0.000s      0.014w      1 calls
| post-process grid                 :      0.017u      0.017s      0.009w      1 calls
DFH: sparsity prep                  :      0.000u      0.000s      0.007w      1 calls
| Libint2ERI::Libint2ERI            :      0.000u      0.000s      0.006w      1 calls
DFH: initialize()                   :      0.017u      0.000s      0.012w      1 calls
| Libint2ERI::Libint2ERI            :      0.000u      0.000s      0.003w      2 calls
| DFH: AO Construction              :      0.000u      0.000s      0.001w      1 calls
| DFH: AO-Met. Contraction          :      0.000u      0.000s      0.000w      1 calls
HF: Form core H                     :      0.000u      0.000s      0.001w      1 calls
HF: Form S/X                        :      0.000u      0.000s      0.000w      1 calls
HF: Guess                           :      0.033u      0.000s      0.019w      1 calls
| SAD Guess                         :      0.033u      0.000s      0.018w      1 calls
HF: Form G                          :      0.950u      0.033s      0.578w      9 calls
| RV: Form V                        :      0.950u      0.033s      0.576w      9 calls
| | Properties                      :      0.067u      0.000s      0.058w   4986 calls
| | Functional                      :      0.783u      0.033s      0.445w   4986 calls
| | V_xc                            :      0.100u      0.000s      0.065w   4986 calls
| JK: D                             :      0.000u      0.000s      0.000w      9 calls
| JK: USO2AO                        :      0.000u      0.000s      0.000w      9 calls
| JK: JK                            :      0.000u      0.000s      0.000w      9 calls
| | DFH: compute_JK()               :      0.000u      0.000s      0.000w      9 calls
| | | DFH: Grabbing AOs             :      0.000u      0.000s      0.000w      9 calls
| | | DFH: compute_J                :      0.000u      0.000s      0.000w      9 calls
| JK: AO2USO                        :      0.000u      0.000s      0.000w      9 calls
HF: Form F                          :      0.000u      0.000s      0.000w      9 calls
HF: Form D                          :      0.000u      0.000s      0.000w      9 calls
HF: DIIS                            :      0.050u      0.000s      0.048w      8 calls
HF: Form C                          :      0.000u      0.000s      0.002w      8 calls

**************************************************************************************

Host: TUF

Timers On : Fri Jul 18 12:19:34 2025
Timers Off: Fri Jul 18 12:19:35 2025

Wall Time:        0.77 seconds

                                                       Time (seconds)
Module                                       User      System        Wall        Calls

--------------------------------------------------------------------------------------

**************************************************************************************

Host: TUF

Timers On : Fri Jul 18 12:19:45 2025
Timers Off: Fri Jul 18 12:19:47 2025

Wall Time:        1.76 seconds

                                                       Time (seconds)
Module                                       User      System        Wall        Calls
V: Grid                             :      0.033u      0.000s      0.022w      1 calls
build grid                          :      0.017u      0.000s      0.014w      1 calls
post-process grid                   :      0.017u      0.000s      0.009w      1 calls
DFH: sparsity prep                  :      0.000u      0.017s      0.013w      1 calls
Libint2ERI::Libint2ERI              :      0.000u      0.017s      0.015w      3 calls
DFH: initialize()                   :      0.000u      0.000s      0.013w      1 calls
DFH: AO Construction                :      0.000u      0.000s      0.003w      1 calls
DFH: AO-Met. Contraction            :      0.000u      0.000s      0.000w      1 calls
HF: Form core H                     :      0.000u      0.000s      0.002w      1 calls
HF: Form S/X                        :      0.017u      0.000s      0.000w      1 calls
HF: Guess                           :      0.017u      0.000s      0.021w      1 calls
SAD Guess                           :      0.017u      0.000s      0.020w      1 calls
HF: Form G                          :      0.950u      0.033s      0.580w      9 calls
RV: Form V                          :      0.950u      0.033s      0.578w      9 calls
Properties                          :      0.083u      0.000s      0.059w   4986 calls
Functional                          :      0.767u      0.017s      0.445w   4986 calls
V_xc                                :      0.067u      0.017s      0.065w   4986 calls
JK: D                               :      0.000u      0.000s      0.000w      9 calls
JK: USO2AO                          :      0.000u      0.000s      0.000w      9 calls
JK: JK                              :      0.000u      0.000s      0.000w      9 calls
DFH: compute_JK()                   :      0.000u      0.000s      0.000w      9 calls
DFH: Grabbing AOs                   :      0.000u      0.000s      0.000w      9 calls
DFH: compute_J                      :      0.000u      0.000s      0.000w      9 calls
JK: AO2USO                          :      0.000u      0.000s      0.000w      9 calls
HF: Form F                          :      0.000u      0.000s      0.000w      9 calls
HF: Form D                          :      0.000u      0.000s      0.000w      9 calls
HF: DIIS                            :      0.100u      0.017s      0.095w      8 calls
HF: Form C                          :      0.000u      0.000s      0.002w      8 calls

--------------------------------------------------------------------------------------
V: Grid                             :      0.033u      0.000s      0.022w      1 calls
| build grid                        :      0.017u      0.000s      0.014w      1 calls
| post-process grid                 :      0.017u      0.000s      0.009w      1 calls
DFH: sparsity prep                  :      0.000u      0.017s      0.013w      1 calls
| Libint2ERI::Libint2ERI            :      0.000u      0.017s      0.012w      1 calls
DFH: initialize()                   :      0.000u      0.000s      0.013w      1 calls
| Libint2ERI::Libint2ERI            :      0.000u      0.000s      0.003w      2 calls
| DFH: AO Construction              :      0.000u      0.000s      0.003w      1 calls
| DFH: AO-Met. Contraction          :      0.000u      0.000s      0.000w      1 calls
HF: Form core H                     :      0.000u      0.000s      0.002w      1 calls
HF: Form S/X                        :      0.017u      0.000s      0.000w      1 calls
HF: Guess                           :      0.017u      0.000s      0.021w      1 calls
| SAD Guess                         :      0.017u      0.000s      0.020w      1 calls
HF: Form G                          :      0.950u      0.033s      0.580w      9 calls
| RV: Form V                        :      0.950u      0.033s      0.578w      9 calls
| | Properties                      :      0.083u      0.000s      0.059w   4986 calls
| | Functional                      :      0.767u      0.017s      0.445w   4986 calls
| | V_xc                            :      0.067u      0.017s      0.065w   4986 calls
| JK: D                             :      0.000u      0.000s      0.000w      9 calls
| JK: USO2AO                        :      0.000u      0.000s      0.000w      9 calls
| JK: JK                            :      0.000u      0.000s      0.000w      9 calls
| | DFH: compute_JK()               :      0.000u      0.000s      0.000w      9 calls
| | | DFH: Grabbing AOs             :      0.000u      0.000s      0.000w      9 calls
| | | DFH: compute_J                :      0.000u      0.000s      0.000w      9 calls
| JK: AO2USO                        :      0.000u      0.000s      0.000w      9 calls
HF: Form F                          :      0.000u      0.000s      0.000w      9 calls
HF: Form D                          :      0.000u      0.000s      0.000w      9 calls
HF: DIIS                            :      0.100u      0.017s      0.095w      8 calls
HF: Form C                          :      0.000u      0.000s      0.002w      8 calls

**************************************************************************************

Host: TUF

Timers On : Fri Jul 18 12:21:31 2025
Timers Off: Fri Jul 18 12:21:33 2025

Wall Time:        1.65 seconds

                                                       Time (seconds)
Module                                       User      System        Wall        Calls
V: Grid                             :      0.033u      0.000s      0.022w      1 calls
build grid                          :      0.017u      0.000s      0.014w      1 calls
post-process grid                   :      0.017u      0.000s      0.009w      1 calls
DFH: sparsity prep                  :      0.000u      0.000s      0.006w      1 calls
Libint2ERI::Libint2ERI              :      0.017u      0.000s      0.008w      3 calls
DFH: initialize()                   :      0.017u      0.000s      0.012w      1 calls
DFH: AO Construction                :      0.000u      0.000s      0.001w      1 calls
DFH: AO-Met. Contraction            :      0.000u      0.000s      0.000w      1 calls
HF: Form core H                     :      0.000u      0.000s      0.001w      1 calls
HF: Form S/X                        :      0.000u      0.000s      0.000w      1 calls
HF: Guess                           :      0.017u      0.000s      0.022w      1 calls
SAD Guess                           :      0.017u      0.000s      0.021w      1 calls
HF: Form G                          :      0.950u      0.017s      0.580w      9 calls
RV: Form V                          :      0.950u      0.017s      0.578w      9 calls
Properties                          :      0.150u      0.000s      0.059w   4986 calls
Functional                          :      0.633u      0.017s      0.446w   4986 calls
V_xc                                :      0.133u      0.000s      0.066w   4986 calls
JK: D                               :      0.000u      0.000s      0.000w      9 calls
JK: USO2AO                          :      0.000u      0.000s      0.000w      9 calls
JK: JK                              :      0.000u      0.000s      0.000w      9 calls
DFH: compute_JK()                   :      0.000u      0.000s      0.000w      9 calls
DFH: Grabbing AOs                   :      0.000u      0.000s      0.000w      9 calls
DFH: compute_J                      :      0.000u      0.000s      0.000w      9 calls
JK: AO2USO                          :      0.000u      0.000s      0.000w      9 calls
HF: Form F                          :      0.000u      0.000s      0.000w      9 calls
HF: Form D                          :      0.000u      0.000s      0.000w      9 calls
HF: DIIS                            :      0.050u      0.017s      0.047w      8 calls
HF: Form C                          :      0.000u      0.000s      0.002w      8 calls

--------------------------------------------------------------------------------------
V: Grid                             :      0.033u      0.000s      0.022w      1 calls
| build grid                        :      0.017u      0.000s      0.014w      1 calls
| post-process grid                 :      0.017u      0.000s      0.009w      1 calls
DFH: sparsity prep                  :      0.000u      0.000s      0.006w      1 calls
| Libint2ERI::Libint2ERI            :      0.000u      0.000s      0.005w      1 calls
DFH: initialize()                   :      0.017u      0.000s      0.012w      1 calls
| Libint2ERI::Libint2ERI            :      0.017u      0.000s      0.003w      2 calls
| DFH: AO Construction              :      0.000u      0.000s      0.001w      1 calls
| DFH: AO-Met. Contraction          :      0.000u      0.000s      0.000w      1 calls
HF: Form core H                     :      0.000u      0.000s      0.001w      1 calls
HF: Form S/X                        :      0.000u      0.000s      0.000w      1 calls
HF: Guess                           :      0.017u      0.000s      0.022w      1 calls
| SAD Guess                         :      0.017u      0.000s      0.021w      1 calls
HF: Form G                          :      0.950u      0.017s      0.580w      9 calls
| RV: Form V                        :      0.950u      0.017s      0.578w      9 calls
| | Properties                      :      0.150u      0.000s      0.059w   4986 calls
| | Functional                      :      0.633u      0.017s      0.446w   4986 calls
| | V_xc                            :      0.133u      0.000s      0.066w   4986 calls
| JK: D                             :      0.000u      0.000s      0.000w      9 calls
| JK: USO2AO                        :      0.000u      0.000s      0.000w      9 calls
| JK: JK                            :      0.000u      0.000s      0.000w      9 calls
| | DFH: compute_JK()               :      0.000u      0.000s      0.000w      9 calls
| | | DFH: Grabbing AOs             :      0.000u      0.000s      0.000w      9 calls
| | | DFH: compute_J                :      0.000u      0.000s      0.000w      9 calls
| JK: AO2USO                        :      0.000u      0.000s      0.000w      9 calls
HF: Form F                          :      0.000u      0.000s      0.000w      9 calls
HF: Form D                          :      0.000u      0.000s      0.000w      9 calls
HF: DIIS                            :      0.050u      0.017s      0.047w      8 calls
HF: Form C                          :      0.000u      0.000s      0.002w      8 calls

**************************************************************************************

Host: TUF

Timers On : Fri Jul 18 12:23:50 2025
Timers Off: Fri Jul 18 12:23:51 2025

Wall Time:        0.85 seconds

                                                       Time (seconds)
Module                                       User      System        Wall        Calls

--------------------------------------------------------------------------------------

**************************************************************************************

Host: TUF

Timers On : Fri Jul 18 12:26:00 2025
Timers Off: Fri Jul 18 12:26:01 2025

Wall Time:        0.94 seconds

                                                       Time (seconds)
Module                                       User      System        Wall        Calls

--------------------------------------------------------------------------------------

**************************************************************************************

Host: TUF

Timers On : Fri Jul 18 12:47:59 2025
Timers Off: Fri Jul 18 12:48:00 2025

Wall Time:        1.05 seconds

                                                       Time (seconds)
Module                                       User      System        Wall        Calls

--------------------------------------------------------------------------------------

**************************************************************************************

Host: TUF

Timers On : Fri Jul 18 12:54:45 2025
Timers Off: Fri Jul 18 12:54:59 2025

Wall Time:       14.94 seconds

                                                       Time (seconds)
Module                                       User      System        Wall        Calls

--------------------------------------------------------------------------------------

**************************************************************************************

Host: TUF

Timers On : Fri Jul 18 13:34:20 2025
Timers Off: Fri Jul 18 13:34:21 2025

Wall Time:        0.66 seconds

                                                       Time (seconds)
Module                                       User      System        Wall        Calls

--------------------------------------------------------------------------------------

**************************************************************************************

Host: TUF

Timers On : Fri Jul 18 13:34:32 2025
Timers Off: Fri Jul 18 13:34:46 2025

Wall Time:       14.36 seconds

                                                       Time (seconds)
Module                                       User      System        Wall        Calls

--------------------------------------------------------------------------------------

**************************************************************************************

Host: TUF

Timers On : Fri Jul 18 13:36:15 2025
Timers Off: Fri Jul 18 13:36:31 2025

Wall Time:       15.91 seconds

                                                       Time (seconds)
Module                                       User      System        Wall        Calls

--------------------------------------------------------------------------------------

**************************************************************************************

Host: TUF

Timers On : Fri Jul 18 13:36:54 2025
Timers Off: Fri Jul 18 13:36:54 2025

Wall Time:        0.40 seconds

                                                       Time (seconds)
Module                                       User      System        Wall        Calls

--------------------------------------------------------------------------------------

**************************************************************************************

Host: TUF

Timers On : Fri Jul 18 13:37:25 2025
Timers Off: Fri Jul 18 13:37:25 2025

Wall Time:        0.82 seconds

                                                       Time (seconds)
Module                                       User      System        Wall        Calls

--------------------------------------------------------------------------------------

**************************************************************************************

Host: TUF

Timers On : Fri Jul 18 13:38:01 2025
Timers Off: Fri Jul 18 13:38:16 2025

Wall Time:       15.52 seconds

                                                       Time (seconds)
Module                                       User      System        Wall        Calls

--------------------------------------------------------------------------------------

**************************************************************************************

Host: TUF

Timers On : Fri Jul 18 13:38:33 2025
Timers Off: Fri Jul 18 13:38:34 2025

Wall Time:        1.01 seconds

                                                       Time (seconds)
Module                                       User      System        Wall        Calls
V: Grid                             :      0.033u      0.000s      0.026w      1 calls
build grid                          :      0.033u      0.000s      0.017w      1 calls
post-process grid                   :      0.000u      0.000s      0.008w      1 calls

--------------------------------------------------------------------------------------
V: Grid                             :      0.033u      0.000s      0.026w      1 calls
| build grid                        :      0.033u      0.000s      0.017w      1 calls
| post-process grid                 :      0.000u      0.000s      0.008w      1 calls

**************************************************************************************

Host: TUF

Timers On : Fri Jul 18 13:40:22 2025
Timers Off: Fri Jul 18 13:40:23 2025

Wall Time:        1.00 seconds

                                                       Time (seconds)
Module                                       User      System        Wall        Calls
V: Grid                             :      0.033u      0.000s      0.024w      1 calls
build grid                          :      0.017u      0.000s      0.016w      1 calls
post-process grid                   :      0.017u      0.000s      0.009w      1 calls

--------------------------------------------------------------------------------------
V: Grid                             :      0.033u      0.000s      0.024w      1 calls
| build grid                        :      0.017u      0.000s      0.016w      1 calls
| post-process grid                 :      0.017u      0.000s      0.009w      1 calls

**************************************************************************************

Host: TUF

Timers On : Fri Jul 18 14:06:44 2025
Timers Off: Fri Jul 18 14:06:46 2025

Wall Time:        1.08 seconds

                                                       Time (seconds)
Module                                       User      System        Wall        Calls
V: Grid                             :      0.050u      0.000s      0.023w      1 calls
build grid                          :      0.033u      0.000s      0.014w      1 calls
post-process grid                   :      0.017u      0.000s      0.009w      1 calls

--------------------------------------------------------------------------------------
V: Grid                             :      0.050u      0.000s      0.023w      1 calls
| build grid                        :      0.033u      0.000s      0.014w      1 calls
| post-process grid                 :      0.017u      0.000s      0.009w      1 calls

**************************************************************************************

Host: TUF

Timers On : Fri Jul 18 14:07:13 2025
Timers Off: Fri Jul 18 14:07:16 2025

Wall Time:        3.21 seconds

                                                       Time (seconds)
Module                                       User      System        Wall        Calls
V: Grid                             :      0.033u      0.000s      0.023w      1 calls
build grid                          :      0.017u      0.000s      0.014w      1 calls
post-process grid                   :      0.017u      0.000s      0.009w      1 calls
DFH: sparsity prep                  :      0.000u      0.017s      0.020w      1 calls
Libint2ERI::Libint2ERI              :      0.000u      0.017s      0.022w      3 calls
DFH: initialize()                   :      0.000u      0.000s      0.020w      1 calls
DFH: AO Construction                :      0.000u      0.000s      0.003w      1 calls
DFH: AO-Met. Contraction            :      0.000u      0.000s      0.000w      1 calls
HF: Form core H                     :      0.000u      0.000s      0.001w      1 calls
HF: Form S/X                        :      0.000u      0.000s      0.000w      1 calls
HF: Guess                           :      0.033u      0.017s      0.022w      1 calls
SAD Guess                           :      0.033u      0.017s      0.021w      1 calls
HF: Form G                          :      0.983u      0.033s      0.586w      9 calls
RV: Form V                          :      0.967u      0.033s      0.585w      9 calls
Properties                          :      0.117u      0.000s      0.059w   4986 calls
Functional                          :      0.767u      0.033s      0.450w   4986 calls
V_xc                                :      0.083u      0.000s      0.067w   4986 calls
JK: D                               :      0.000u      0.000s      0.000w      9 calls
JK: USO2AO                          :      0.000u      0.000s      0.000w      9 calls
JK: JK                              :      0.017u      0.000s      0.000w      9 calls
DFH: compute_JK()                   :      0.017u      0.000s      0.000w      9 calls
DFH: Grabbing AOs                   :      0.000u      0.000s      0.000w      9 calls
DFH: compute_J                      :      0.017u      0.000s      0.000w      9 calls
JK: AO2USO                          :      0.000u      0.000s      0.000w      9 calls
HF: Form F                          :      0.000u      0.000s      0.000w      9 calls
HF: Form D                          :      0.000u      0.000s      0.000w      9 calls
HF: DIIS                            :      0.100u      0.017s      0.118w      8 calls
HF: Form C                          :      0.000u      0.000s      0.002w      8 calls

--------------------------------------------------------------------------------------
V: Grid                             :      0.033u      0.000s      0.023w      1 calls
| build grid                        :      0.017u      0.000s      0.014w      1 calls
| post-process grid                 :      0.017u      0.000s      0.009w      1 calls
DFH: sparsity prep                  :      0.000u      0.017s      0.020w      1 calls
| Libint2ERI::Libint2ERI            :      0.000u      0.017s      0.018w      1 calls
DFH: initialize()                   :      0.000u      0.000s      0.020w      1 calls
| Libint2ERI::Libint2ERI            :      0.000u      0.000s      0.004w      2 calls
| DFH: AO Construction              :      0.000u      0.000s      0.003w      1 calls
| DFH: AO-Met. Contraction          :      0.000u      0.000s      0.000w      1 calls
HF: Form core H                     :      0.000u      0.000s      0.001w      1 calls
HF: Form S/X                        :      0.000u      0.000s      0.000w      1 calls
HF: Guess                           :      0.033u      0.017s      0.022w      1 calls
| SAD Guess                         :      0.033u      0.017s      0.021w      1 calls
HF: Form G                          :      0.983u      0.033s      0.586w      9 calls
| RV: Form V                        :      0.967u      0.033s      0.585w      9 calls
| | Properties                      :      0.117u      0.000s      0.059w   4986 calls
| | Functional                      :      0.767u      0.033s      0.450w   4986 calls
| | V_xc                            :      0.083u      0.000s      0.067w   4986 calls
| JK: D                             :      0.000u      0.000s      0.000w      9 calls
| JK: USO2AO                        :      0.000u      0.000s      0.000w      9 calls
| JK: JK                            :      0.017u      0.000s      0.000w      9 calls
| | DFH: compute_JK()               :      0.017u      0.000s      0.000w      9 calls
| | | DFH: Grabbing AOs             :      0.000u      0.000s      0.000w      9 calls
| | | DFH: compute_J                :      0.017u      0.000s      0.000w      9 calls
| JK: AO2USO                        :      0.000u      0.000s      0.000w      9 calls
HF: Form F                          :      0.000u      0.000s      0.000w      9 calls
HF: Form D                          :      0.000u      0.000s      0.000w      9 calls
HF: DIIS                            :      0.100u      0.017s      0.118w      8 calls
HF: Form C                          :      0.000u      0.000s      0.002w      8 calls

**************************************************************************************
