
Host: TUF

Timers On : Thu Jul 17 13:56:22 2025
Timers Off: Thu Jul 17 13:56:37 2025

Wall Time:       14.80 seconds

                                                       Time (seconds)
Module                                       User      System        Wall        Calls

--------------------------------------------------------------------------------------

**************************************************************************************

Host: TUF

Timers On : Thu Jul 17 14:00:00 2025
Timers Off: Thu Jul 17 14:00:00 2025

Wall Time:        0.47 seconds

                                                       Time (seconds)
Module                                       User      System        Wall        Calls

--------------------------------------------------------------------------------------

**************************************************************************************

Host: TUF

Timers On : Thu Jul 17 14:00:10 2025
Timers Off: Thu Jul 17 14:00:25 2025

Wall Time:       14.48 seconds

                                                       Time (seconds)
Module                                       User      System        Wall        Calls

--------------------------------------------------------------------------------------

**************************************************************************************

Host: TUF

Timers On : Thu Jul 17 14:03:20 2025
Timers Off: Thu Jul 17 14:03:20 2025

Wall Time:        0.40 seconds

                                                       Time (seconds)
Module                                       User      System        Wall        Calls

--------------------------------------------------------------------------------------

**************************************************************************************

Host: TUF

Timers On : Thu Jul 17 14:03:29 2025
Timers Off: Thu Jul 17 14:03:43 2025

Wall Time:       14.31 seconds

                                                       Time (seconds)
Module                                       User      System        Wall        Calls

--------------------------------------------------------------------------------------

**************************************************************************************

Host: TUF

Timers On : Thu Jul 17 14:04:11 2025
Timers Off: Thu Jul 17 14:04:25 2025

Wall Time:       14.37 seconds

                                                       Time (seconds)
Module                                       User      System        Wall        Calls

--------------------------------------------------------------------------------------

**************************************************************************************

Host: TUF

Timers On : Thu Jul 17 14:04:27 2025
Timers Off: Thu Jul 17 14:04:42 2025

Wall Time:       14.90 seconds

                                                       Time (seconds)
Module                                       User      System        Wall        Calls

--------------------------------------------------------------------------------------

**************************************************************************************

Host: TUF

Timers On : Thu Jul 17 14:06:02 2025
Timers Off: Thu Jul 17 14:06:17 2025

Wall Time:       14.86 seconds

                                                       Time (seconds)
Module                                       User      System        Wall        Calls

--------------------------------------------------------------------------------------

**************************************************************************************

Host: TUF

Timers On : Thu Jul 17 14:07:54 2025
Timers Off: Thu Jul 17 14:08:10 2025

Wall Time:       15.12 seconds

                                                       Time (seconds)
Module                                       User      System        Wall        Calls

--------------------------------------------------------------------------------------

**************************************************************************************

Host: TUF

Timers On : Thu Jul 17 14:09:22 2025
Timers Off: Thu Jul 17 14:09:23 2025

Wall Time:        0.44 seconds

                                                       Time (seconds)
Module                                       User      System        Wall        Calls

--------------------------------------------------------------------------------------

**************************************************************************************

Host: TUF

Timers On : Thu Jul 17 14:09:32 2025
Timers Off: Thu Jul 17 14:09:46 2025

Wall Time:       14.44 seconds

                                                       Time (seconds)
Module                                       User      System        Wall        Calls

--------------------------------------------------------------------------------------

**************************************************************************************

Host: TUF

Timers On : Thu Jul 17 14:10:10 2025
Timers Off: Thu Jul 17 14:10:10 2025

Wall Time:        0.43 seconds

                                                       Time (seconds)
Module                                       User      System        Wall        Calls

--------------------------------------------------------------------------------------

**************************************************************************************

Host: TUF

Timers On : Thu Jul 17 14:10:16 2025
Timers Off: Thu Jul 17 14:10:30 2025

Wall Time:       14.82 seconds

                                                       Time (seconds)
Module                                       User      System        Wall        Calls

--------------------------------------------------------------------------------------

**************************************************************************************

Host: TUF

Timers On : Thu Jul 17 14:10:40 2025
Timers Off: Thu Jul 17 14:10:55 2025

Wall Time:       15.13 seconds

                                                       Time (seconds)
Module                                       User      System        Wall        Calls

--------------------------------------------------------------------------------------

**************************************************************************************

Host: TUF

Timers On : Thu Jul 17 14:11:22 2025
Timers Off: Thu Jul 17 14:11:23 2025

Wall Time:        0.44 seconds

                                                       Time (seconds)
Module                                       User      System        Wall        Calls

--------------------------------------------------------------------------------------

**************************************************************************************

Host: TUF

Timers On : Thu Jul 17 14:11:28 2025
Timers Off: Thu Jul 17 14:11:43 2025

Wall Time:       14.99 seconds

                                                       Time (seconds)
Module                                       User      System        Wall        Calls

--------------------------------------------------------------------------------------

**************************************************************************************

Host: TUF

Timers On : Thu Jul 17 14:14:37 2025
Timers Off: Thu Jul 17 14:14:37 2025

Wall Time:        0.42 seconds

                                                       Time (seconds)
Module                                       User      System        Wall        Calls

--------------------------------------------------------------------------------------

**************************************************************************************

Host: TUF

Timers On : Thu Jul 17 14:14:47 2025
Timers Off: Thu Jul 17 14:15:02 2025

Wall Time:       14.58 seconds

                                                       Time (seconds)
Module                                       User      System        Wall        Calls

--------------------------------------------------------------------------------------

**************************************************************************************

Host: TUF

Timers On : Thu Jul 17 14:15:19 2025
Timers Off: Thu Jul 17 14:15:33 2025

Wall Time:       14.67 seconds

                                                       Time (seconds)
Module                                       User      System        Wall        Calls

--------------------------------------------------------------------------------------

**************************************************************************************

Host: TUF

Timers On : Thu Jul 17 14:17:55 2025
Timers Off: Thu Jul 17 14:18:09 2025

Wall Time:       14.60 seconds

                                                       Time (seconds)
Module                                       User      System        Wall        Calls

--------------------------------------------------------------------------------------

**************************************************************************************

Host: TUF

Timers On : Thu Jul 17 15:04:53 2025
Timers Off: Thu Jul 17 15:05:08 2025

Wall Time:       15.02 seconds

                                                       Time (seconds)
Module                                       User      System        Wall        Calls

--------------------------------------------------------------------------------------

**************************************************************************************

Host: TUF

Timers On : Thu Jul 17 15:07:34 2025
Timers Off: Thu Jul 17 15:07:34 2025

Wall Time:        0.43 seconds

                                                       Time (seconds)
Module                                       User      System        Wall        Calls

--------------------------------------------------------------------------------------

**************************************************************************************

Host: TUF

Timers On : Thu Jul 17 15:07:41 2025
Timers Off: Thu Jul 17 15:07:55 2025

Wall Time:       13.36 seconds

                                                       Time (seconds)
Module                                       User      System        Wall        Calls

--------------------------------------------------------------------------------------

**************************************************************************************

Host: TUF

Timers On : Thu Jul 17 15:08:22 2025
Timers Off: Thu Jul 17 15:08:37 2025

Wall Time:       15.13 seconds

                                                       Time (seconds)
Module                                       User      System        Wall        Calls

--------------------------------------------------------------------------------------

**************************************************************************************

Host: TUF

Timers On : Thu Jul 17 15:09:01 2025
Timers Off: Thu Jul 17 15:09:16 2025

Wall Time:       14.56 seconds

                                                       Time (seconds)
Module                                       User      System        Wall        Calls

--------------------------------------------------------------------------------------

**************************************************************************************

Host: TUF

Timers On : Thu Jul 17 15:09:49 2025
Timers Off: Thu Jul 17 15:09:50 2025

Wall Time:        0.44 seconds

                                                       Time (seconds)
Module                                       User      System        Wall        Calls

--------------------------------------------------------------------------------------

**************************************************************************************

Host: TUF

Timers On : Thu Jul 17 15:09:55 2025
Timers Off: Thu Jul 17 15:10:10 2025

Wall Time:       14.95 seconds

                                                       Time (seconds)
Module                                       User      System        Wall        Calls

--------------------------------------------------------------------------------------

**************************************************************************************
