
Host: TUF

Timers On : Thu Jul 10 15:24:01 2025
Timers Off: Thu Jul 10 15:24:03 2025

Wall Time:        2.51 seconds

                                                       Time (seconds)
Module                                       User      System        Wall        Calls

--------------------------------------------------------------------------------------

**************************************************************************************

Host: TUF

Timers On : Thu Jul 10 15:24:24 2025
Timers Off: Thu Jul 10 15:24:27 2025

Wall Time:        2.92 seconds

                                                       Time (seconds)
Module                                       User      System        Wall        Calls

--------------------------------------------------------------------------------------

**************************************************************************************

Host: TUF

Timers On : Thu Jul 10 15:25:02 2025
Timers Off: Thu Jul 10 15:25:05 2025

Wall Time:        2.48 seconds

                                                       Time (seconds)
Module                                       User      System        Wall        Calls

--------------------------------------------------------------------------------------

**************************************************************************************

Host: TUF

Timers On : Thu Jul 10 15:25:22 2025
Timers Off: Thu Jul 10 15:25:24 2025

Wall Time:        2.77 seconds

                                                       Time (seconds)
Module                                       User      System        Wall        Calls

--------------------------------------------------------------------------------------

**************************************************************************************

Host: TUF

Timers On : Thu Jul 10 15:25:39 2025
Timers Off: Thu Jul 10 15:25:42 2025

Wall Time:        3.03 seconds

                                                       Time (seconds)
Module                                       User      System        Wall        Calls

--------------------------------------------------------------------------------------

**************************************************************************************

Host: TUF

Timers On : Thu Jul 10 15:28:20 2025
Timers Off: Thu Jul 10 15:28:23 2025

Wall Time:        2.69 seconds

                                                       Time (seconds)
Module                                       User      System        Wall        Calls

--------------------------------------------------------------------------------------

**************************************************************************************

Host: TUF

Timers On : Thu Jul 10 15:29:11 2025
Timers Off: Thu Jul 10 15:29:13 2025

Wall Time:        2.12 seconds

                                                       Time (seconds)
Module                                       User      System        Wall        Calls

--------------------------------------------------------------------------------------

**************************************************************************************

Host: TUF

Timers On : Thu Jul 10 15:30:50 2025
Timers Off: Thu Jul 10 15:30:53 2025

Wall Time:        2.90 seconds

                                                       Time (seconds)
Module                                       User      System        Wall        Calls

--------------------------------------------------------------------------------------

**************************************************************************************

Host: TUF

Timers On : Thu Jul 10 15:31:22 2025
Timers Off: Thu Jul 10 15:31:25 2025

Wall Time:        2.58 seconds

                                                       Time (seconds)
Module                                       User      System        Wall        Calls

--------------------------------------------------------------------------------------

**************************************************************************************

Host: TUF

Timers On : Thu Jul 10 15:31:44 2025
Timers Off: Thu Jul 10 15:31:49 2025

Wall Time:        4.56 seconds

                                                       Time (seconds)
Module                                       User      System        Wall        Calls

--------------------------------------------------------------------------------------

**************************************************************************************

Host: TUF

Timers On : Thu Jul 10 15:33:16 2025
Timers Off: Thu Jul 10 15:33:19 2025

Wall Time:        3.32 seconds

                                                       Time (seconds)
Module                                       User      System        Wall        Calls

--------------------------------------------------------------------------------------

**************************************************************************************

Host: TUF

Timers On : Thu Jul 10 15:33:46 2025
Timers Off: Thu Jul 10 15:33:49 2025

Wall Time:        3.45 seconds

                                                       Time (seconds)
Module                                       User      System        Wall        Calls

--------------------------------------------------------------------------------------

**************************************************************************************

Host: TUF

Timers On : Thu Jul 10 15:36:26 2025
Timers Off: Thu Jul 10 15:36:29 2025

Wall Time:        3.70 seconds

                                                       Time (seconds)
Module                                       User      System        Wall        Calls

--------------------------------------------------------------------------------------

**************************************************************************************

Host: TUF

Timers On : Thu Jul 10 15:47:15 2025
Timers Off: Thu Jul 10 15:47:18 2025

Wall Time:        3.72 seconds

                                                       Time (seconds)
Module                                       User      System        Wall        Calls

--------------------------------------------------------------------------------------

**************************************************************************************

Host: TUF

Timers On : Thu Jul 10 15:48:11 2025
Timers Off: Thu Jul 10 15:48:14 2025

Wall Time:        3.77 seconds

                                                       Time (seconds)
Module                                       User      System        Wall        Calls

--------------------------------------------------------------------------------------

**************************************************************************************

Host: TUF

Timers On : Thu Jul 10 16:08:12 2025
Timers Off: Thu Jul 10 16:08:15 2025

Wall Time:        3.05 seconds

                                                       Time (seconds)
Module                                       User      System        Wall        Calls

--------------------------------------------------------------------------------------

**************************************************************************************

Host: TUF

Timers On : Thu Jul 10 16:08:37 2025
Timers Off: Thu Jul 10 16:08:44 2025

Wall Time:        6.70 seconds

                                                       Time (seconds)
Module                                       User      System        Wall        Calls

--------------------------------------------------------------------------------------

**************************************************************************************

Host: TUF

Timers On : Thu Jul 10 16:14:26 2025
Timers Off: Thu Jul 10 16:14:35 2025

Wall Time:        8.97 seconds

                                                       Time (seconds)
Module                                       User      System        Wall        Calls

--------------------------------------------------------------------------------------

**************************************************************************************

Host: TUF

Timers On : Thu Jul 10 16:17:34 2025
Timers Off: Thu Jul 10 16:17:41 2025

Wall Time:        6.98 seconds

                                                       Time (seconds)
Module                                       User      System        Wall        Calls

--------------------------------------------------------------------------------------

**************************************************************************************

Host: TUF

Timers On : Thu Jul 10 16:19:00 2025
Timers Off: Thu Jul 10 16:19:07 2025

Wall Time:        6.81 seconds

                                                       Time (seconds)
Module                                       User      System        Wall        Calls

--------------------------------------------------------------------------------------

**************************************************************************************

Host: TUF

Timers On : Thu Jul 10 16:19:32 2025
Timers Off: Thu Jul 10 16:19:40 2025

Wall Time:        7.74 seconds

                                                       Time (seconds)
Module                                       User      System        Wall        Calls

--------------------------------------------------------------------------------------

**************************************************************************************

Host: TUF

Timers On : Thu Jul 10 16:22:32 2025
Timers Off: Thu Jul 10 16:22:39 2025

Wall Time:        7.21 seconds

                                                       Time (seconds)
Module                                       User      System        Wall        Calls

--------------------------------------------------------------------------------------

**************************************************************************************

Host: TUF

Timers On : Thu Jul 10 16:26:47 2025
Timers Off: Thu Jul 10 16:26:50 2025

Wall Time:        2.98 seconds

                                                       Time (seconds)
Module                                       User      System        Wall        Calls

--------------------------------------------------------------------------------------

**************************************************************************************

Host: TUF

Timers On : Thu Jul 10 16:42:59 2025
Timers Off: Thu Jul 10 16:43:04 2025

Wall Time:        4.79 seconds

                                                       Time (seconds)
Module                                       User      System        Wall        Calls

--------------------------------------------------------------------------------------

**************************************************************************************

Host: TUF

Timers On : Thu Jul 10 16:44:00 2025
Timers Off: Thu Jul 10 16:44:04 2025

Wall Time:        4.39 seconds

                                                       Time (seconds)
Module                                       User      System        Wall        Calls

--------------------------------------------------------------------------------------

**************************************************************************************

Host: TUF

Timers On : Thu Jul 10 16:45:24 2025
Timers Off: Thu Jul 10 16:45:28 2025

Wall Time:        3.66 seconds

                                                       Time (seconds)
Module                                       User      System        Wall        Calls

--------------------------------------------------------------------------------------

**************************************************************************************

Host: TUF

Timers On : Thu Jul 10 17:05:11 2025
Timers Off: Thu Jul 10 17:05:16 2025

Wall Time:        4.84 seconds

                                                       Time (seconds)
Module                                       User      System        Wall        Calls

--------------------------------------------------------------------------------------

**************************************************************************************

Host: TUF

Timers On : Thu Jul 10 17:06:06 2025
Timers Off: Thu Jul 10 17:06:09 2025

Wall Time:        3.45 seconds

                                                       Time (seconds)
Module                                       User      System        Wall        Calls

--------------------------------------------------------------------------------------

**************************************************************************************

Host: TUF

Timers On : Thu Jul 10 17:07:15 2025
Timers Off: Thu Jul 10 17:07:18 2025

Wall Time:        3.10 seconds

                                                       Time (seconds)
Module                                       User      System        Wall        Calls

--------------------------------------------------------------------------------------

**************************************************************************************

Host: TUF

Timers On : Thu Jul 10 17:11:01 2025
Timers Off: Thu Jul 10 17:11:05 2025

Wall Time:        4.13 seconds

                                                       Time (seconds)
Module                                       User      System        Wall        Calls

--------------------------------------------------------------------------------------

**************************************************************************************

Host: TUF

Timers On : Thu Jul 10 17:12:19 2025
Timers Off: Thu Jul 10 17:12:29 2025

Wall Time:       10.22 seconds

                                                       Time (seconds)
Module                                       User      System        Wall        Calls

--------------------------------------------------------------------------------------

**************************************************************************************

Host: TUF

Timers On : Thu Jul 10 17:23:40 2025
Timers Off: Thu Jul 10 17:23:50 2025

Wall Time:       10.31 seconds

                                                       Time (seconds)
Module                                       User      System        Wall        Calls

--------------------------------------------------------------------------------------

**************************************************************************************

Host: TUF

Timers On : Thu Jul 10 17:24:36 2025
Timers Off: Thu Jul 10 17:24:47 2025

Wall Time:       10.38 seconds

                                                       Time (seconds)
Module                                       User      System        Wall        Calls

--------------------------------------------------------------------------------------

**************************************************************************************

Host: TUF

Timers On : Thu Jul 10 17:25:03 2025
Timers Off: Thu Jul 10 17:25:13 2025

Wall Time:        9.19 seconds

                                                       Time (seconds)
Module                                       User      System        Wall        Calls

--------------------------------------------------------------------------------------

**************************************************************************************

Host: TUF

Timers On : Thu Jul 10 17:25:23 2025
Timers Off: Thu Jul 10 17:25:31 2025

Wall Time:        7.95 seconds

                                                       Time (seconds)
Module                                       User      System        Wall        Calls

--------------------------------------------------------------------------------------

**************************************************************************************

Host: TUF

Timers On : Thu Jul 10 17:34:45 2025
Timers Off: Thu Jul 10 17:34:59 2025

Wall Time:       13.93 seconds

                                                       Time (seconds)
Module                                       User      System        Wall        Calls

--------------------------------------------------------------------------------------

**************************************************************************************

Host: TUF

Timers On : Thu Jul 10 17:35:34 2025
Timers Off: Thu Jul 10 17:35:47 2025

Wall Time:       13.57 seconds

                                                       Time (seconds)
Module                                       User      System        Wall        Calls

--------------------------------------------------------------------------------------

**************************************************************************************

Host: TUF

Timers On : Thu Jul 10 17:36:46 2025
Timers Off: Thu Jul 10 17:36:57 2025

Wall Time:       11.28 seconds

                                                       Time (seconds)
Module                                       User      System        Wall        Calls

--------------------------------------------------------------------------------------

**************************************************************************************

Host: TUF

Timers On : Thu Jul 10 17:37:17 2025
Timers Off: Thu Jul 10 17:37:29 2025

Wall Time:       12.01 seconds

                                                       Time (seconds)
Module                                       User      System        Wall        Calls

--------------------------------------------------------------------------------------

**************************************************************************************

Host: TUF

Timers On : Thu Jul 10 17:37:32 2025
Timers Off: Thu Jul 10 17:37:45 2025

Wall Time:       13.72 seconds

                                                       Time (seconds)
Module                                       User      System        Wall        Calls

--------------------------------------------------------------------------------------

**************************************************************************************

Host: TUF

Timers On : Thu Jul 10 17:38:03 2025
Timers Off: Thu Jul 10 17:38:38 2025

Wall Time:       35.08 seconds

                                                       Time (seconds)
Module                                       User      System        Wall        Calls

--------------------------------------------------------------------------------------

**************************************************************************************

Host: TUF

Timers On : Thu Jul 10 17:46:06 2025
Timers Off: Thu Jul 10 17:46:40 2025

Wall Time:       34.14 seconds

                                                       Time (seconds)
Module                                       User      System        Wall        Calls

--------------------------------------------------------------------------------------

**************************************************************************************

Host: TUF

Timers On : Thu Jul 10 17:46:57 2025
Timers Off: Thu Jul 10 17:47:54 2025

Wall Time:       56.80 seconds

                                                       Time (seconds)
Module                                       User      System        Wall        Calls

--------------------------------------------------------------------------------------

**************************************************************************************

Host: TUF

Timers On : Thu Jul 10 18:37:07 2025
Timers Off: Thu Jul 10 18:37:38 2025

Wall Time:       30.51 seconds

                                                       Time (seconds)
Module                                       User      System        Wall        Calls

--------------------------------------------------------------------------------------

**************************************************************************************

Host: TUF

Timers On : Thu Jul 10 18:38:19 2025
Timers Off: Thu Jul 10 18:38:45 2025

Wall Time:       26.49 seconds

                                                       Time (seconds)
Module                                       User      System        Wall        Calls

--------------------------------------------------------------------------------------

**************************************************************************************

Host: TUF

Timers On : Thu Jul 10 18:41:19 2025
Timers Off: Thu Jul 10 18:41:46 2025

Wall Time:       27.25 seconds

                                                       Time (seconds)
Module                                       User      System        Wall        Calls

--------------------------------------------------------------------------------------

**************************************************************************************

Host: TUF

Timers On : Thu Jul 10 19:49:47 2025
Timers Off: Thu Jul 10 19:49:50 2025

Wall Time:        3.13 seconds

                                                       Time (seconds)
Module                                       User      System        Wall        Calls

--------------------------------------------------------------------------------------

**************************************************************************************

Host: TUF

Timers On : Thu Jul 10 19:51:29 2025
Timers Off: Thu Jul 10 19:51:57 2025

Wall Time:       27.98 seconds

                                                       Time (seconds)
Module                                       User      System        Wall        Calls

--------------------------------------------------------------------------------------

**************************************************************************************

Host: TUF

Timers On : Thu Jul 10 20:12:53 2025
Timers Off: Thu Jul 10 20:12:54 2025

Wall Time:        1.73 seconds

                                                       Time (seconds)
Module                                       User      System        Wall        Calls

--------------------------------------------------------------------------------------

**************************************************************************************

Host: TUF

Timers On : Thu Jul 10 20:13:32 2025
Timers Off: Thu Jul 10 20:13:34 2025

Wall Time:        1.99 seconds

                                                       Time (seconds)
Module                                       User      System        Wall        Calls

--------------------------------------------------------------------------------------

**************************************************************************************

Host: TUF

Timers On : Thu Jul 10 20:14:14 2025
Timers Off: Thu Jul 10 20:15:02 2025

Wall Time:       47.86 seconds

                                                       Time (seconds)
Module                                       User      System        Wall        Calls

--------------------------------------------------------------------------------------

**************************************************************************************

Host: TUF

Timers On : Thu Jul 10 20:16:35 2025
Timers Off: Thu Jul 10 20:17:23 2025

Wall Time:       48.68 seconds

                                                       Time (seconds)
Module                                       User      System        Wall        Calls

--------------------------------------------------------------------------------------

**************************************************************************************

Host: TUF

Timers On : Thu Jul 10 20:18:37 2025
Timers Off: Thu Jul 10 20:19:25 2025

Wall Time:       47.81 seconds

                                                       Time (seconds)
Module                                       User      System        Wall        Calls

--------------------------------------------------------------------------------------

**************************************************************************************

Host: TUF

Timers On : Thu Jul 10 20:19:45 2025
Timers Off: Thu Jul 10 20:20:33 2025

Wall Time:       48.27 seconds

                                                       Time (seconds)
Module                                       User      System        Wall        Calls

--------------------------------------------------------------------------------------

**************************************************************************************

Host: TUF

Timers On : Thu Jul 10 20:23:26 2025
Timers Off: Thu Jul 10 20:24:14 2025

Wall Time:       48.39 seconds

                                                       Time (seconds)
Module                                       User      System        Wall        Calls

--------------------------------------------------------------------------------------

**************************************************************************************

Host: TUF

Timers On : Thu Jul 10 20:24:31 2025
Timers Off: Thu Jul 10 20:25:26 2025

Wall Time:       55.20 seconds

                                                       Time (seconds)
Module                                       User      System        Wall        Calls

--------------------------------------------------------------------------------------

**************************************************************************************

Host: TUF

Timers On : Thu Jul 10 20:28:25 2025
Timers Off: Thu Jul 10 20:28:41 2025

Wall Time:       15.77 seconds

                                                       Time (seconds)
Module                                       User      System        Wall        Calls

--------------------------------------------------------------------------------------

**************************************************************************************

Host: TUF

Timers On : Thu Jul 10 20:28:57 2025
Timers Off: Thu Jul 10 20:28:59 2025

Wall Time:        1.98 seconds

                                                       Time (seconds)
Module                                       User      System        Wall        Calls

--------------------------------------------------------------------------------------

**************************************************************************************

Host: TUF

Timers On : Thu Jul 10 20:29:06 2025
Timers Off: Thu Jul 10 20:29:37 2025

Wall Time:       30.86 seconds

                                                       Time (seconds)
Module                                       User      System        Wall        Calls

--------------------------------------------------------------------------------------

**************************************************************************************

Host: TUF

Timers On : Fri Jul 11 01:51:28 2025
Timers Off: Fri Jul 11 01:51:50 2025

Wall Time:       21.79 seconds

                                                       Time (seconds)
Module                                       User      System        Wall        Calls

--------------------------------------------------------------------------------------

**************************************************************************************

Host: TUF

Timers On : Fri Jul 11 01:54:08 2025
Timers Off: Fri Jul 11 01:54:29 2025

Wall Time:       21.40 seconds

                                                       Time (seconds)
Module                                       User      System        Wall        Calls

--------------------------------------------------------------------------------------

**************************************************************************************

Host: TUF

Timers On : Fri Jul 11 01:54:53 2025
Timers Off: Fri Jul 11 01:55:13 2025

Wall Time:       20.23 seconds

                                                       Time (seconds)
Module                                       User      System        Wall        Calls

--------------------------------------------------------------------------------------

**************************************************************************************

Host: TUF

Timers On : Fri Jul 11 01:57:42 2025
Timers Off: Fri Jul 11 01:58:03 2025

Wall Time:       20.35 seconds

                                                       Time (seconds)
Module                                       User      System        Wall        Calls

--------------------------------------------------------------------------------------

**************************************************************************************

Host: TUF

Timers On : Fri Jul 11 10:58:35 2025
Timers Off: Fri Jul 11 10:58:37 2025

Wall Time:        1.79 seconds

                                                       Time (seconds)
Module                                       User      System        Wall        Calls

--------------------------------------------------------------------------------------

**************************************************************************************

Host: TUF

Timers On : Fri Jul 11 11:00:26 2025
Timers Off: Fri Jul 11 11:00:49 2025

Wall Time:       22.52 seconds

                                                       Time (seconds)
Module                                       User      System        Wall        Calls

--------------------------------------------------------------------------------------

**************************************************************************************

Host: TUF

Timers On : Fri Jul 11 11:01:34 2025
Timers Off: Fri Jul 11 11:01:57 2025

Wall Time:       22.98 seconds

                                                       Time (seconds)
Module                                       User      System        Wall        Calls

--------------------------------------------------------------------------------------

**************************************************************************************

Host: TUF

Timers On : Fri Jul 11 11:02:20 2025
Timers Off: Fri Jul 11 11:02:42 2025

Wall Time:       21.93 seconds

                                                       Time (seconds)
Module                                       User      System        Wall        Calls

--------------------------------------------------------------------------------------

**************************************************************************************

Host: TUF

Timers On : Fri Jul 11 11:03:03 2025
Timers Off: Fri Jul 11 11:03:28 2025

Wall Time:       24.52 seconds

                                                       Time (seconds)
Module                                       User      System        Wall        Calls

--------------------------------------------------------------------------------------

**************************************************************************************

Host: TUF

Timers On : Fri Jul 11 11:04:37 2025
Timers Off: Fri Jul 11 11:05:02 2025

Wall Time:       24.50 seconds

                                                       Time (seconds)
Module                                       User      System        Wall        Calls

--------------------------------------------------------------------------------------

**************************************************************************************

Host: TUF

Timers On : Fri Jul 11 11:06:12 2025
Timers Off: Fri Jul 11 11:06:36 2025

Wall Time:       23.54 seconds

                                                       Time (seconds)
Module                                       User      System        Wall        Calls

--------------------------------------------------------------------------------------

**************************************************************************************

Host: TUF

Timers On : Fri Jul 11 11:07:16 2025
Timers Off: Fri Jul 11 11:07:40 2025

Wall Time:       24.11 seconds

                                                       Time (seconds)
Module                                       User      System        Wall        Calls

--------------------------------------------------------------------------------------

**************************************************************************************

Host: TUF

Timers On : Fri Jul 11 11:08:00 2025
Timers Off: Fri Jul 11 11:08:26 2025

Wall Time:       25.37 seconds

                                                       Time (seconds)
Module                                       User      System        Wall        Calls

--------------------------------------------------------------------------------------

**************************************************************************************

Host: TUF

Timers On : Fri Jul 11 11:09:22 2025
Timers Off: Fri Jul 11 11:09:49 2025

Wall Time:       26.50 seconds

                                                       Time (seconds)
Module                                       User      System        Wall        Calls

--------------------------------------------------------------------------------------

**************************************************************************************

Host: TUF

Timers On : Fri Jul 11 11:12:16 2025
Timers Off: Fri Jul 11 11:12:42 2025

Wall Time:       26.44 seconds

                                                       Time (seconds)
Module                                       User      System        Wall        Calls

--------------------------------------------------------------------------------------

**************************************************************************************

Host: TUF

Timers On : Fri Jul 11 11:15:22 2025
Timers Off: Fri Jul 11 11:15:24 2025

Wall Time:        1.66 seconds

                                                       Time (seconds)
Module                                       User      System        Wall        Calls

--------------------------------------------------------------------------------------

**************************************************************************************

Host: TUF

Timers On : Fri Jul 11 11:16:06 2025
Timers Off: Fri Jul 11 11:16:33 2025

Wall Time:       27.25 seconds

                                                       Time (seconds)
Module                                       User      System        Wall        Calls

--------------------------------------------------------------------------------------

**************************************************************************************

Host: TUF

Timers On : Fri Jul 11 11:18:37 2025
Timers Off: Fri Jul 11 11:19:03 2025

Wall Time:       25.58 seconds

                                                       Time (seconds)
Module                                       User      System        Wall        Calls

--------------------------------------------------------------------------------------

**************************************************************************************

Host: TUF

Timers On : Fri Jul 11 11:22:50 2025
Timers Off: Fri Jul 11 11:23:16 2025

Wall Time:       25.34 seconds

                                                       Time (seconds)
Module                                       User      System        Wall        Calls

--------------------------------------------------------------------------------------

**************************************************************************************

Host: TUF

Timers On : Fri Jul 11 11:23:45 2025
Timers Off: Fri Jul 11 11:24:11 2025

Wall Time:       26.02 seconds

                                                       Time (seconds)
Module                                       User      System        Wall        Calls

--------------------------------------------------------------------------------------

**************************************************************************************

Host: TUF

Timers On : Fri Jul 11 11:24:41 2025
Timers Off: Fri Jul 11 11:24:50 2025

Wall Time:        9.44 seconds

                                                       Time (seconds)
Module                                       User      System        Wall        Calls

--------------------------------------------------------------------------------------

**************************************************************************************

Host: TUF

Timers On : Fri Jul 11 11:24:57 2025
Timers Off: Fri Jul 11 11:25:23 2025

Wall Time:       25.54 seconds

                                                       Time (seconds)
Module                                       User      System        Wall        Calls

--------------------------------------------------------------------------------------

**************************************************************************************

Host: TUF

Timers On : Fri Jul 11 11:26:41 2025
Timers Off: Fri Jul 11 11:27:07 2025

Wall Time:       25.55 seconds

                                                       Time (seconds)
Module                                       User      System        Wall        Calls

--------------------------------------------------------------------------------------

**************************************************************************************

Host: TUF

Timers On : Fri Jul 11 12:38:46 2025
Timers Off: Fri Jul 11 12:38:48 2025

Wall Time:        2.22 seconds

                                                       Time (seconds)
Module                                       User      System        Wall        Calls

--------------------------------------------------------------------------------------

**************************************************************************************

Host: TUF

Timers On : Fri Jul 11 12:41:36 2025
Timers Off: Fri Jul 11 12:41:38 2025

Wall Time:        2.02 seconds

                                                       Time (seconds)
Module                                       User      System        Wall        Calls

--------------------------------------------------------------------------------------

**************************************************************************************

Host: TUF

Timers On : Fri Jul 11 12:43:45 2025
Timers Off: Fri Jul 11 12:43:45 2025

Wall Time:        0.84 seconds

                                                       Time (seconds)
Module                                       User      System        Wall        Calls

--------------------------------------------------------------------------------------

**************************************************************************************

Host: TUF

Timers On : Fri Jul 11 12:44:20 2025
Timers Off: Fri Jul 11 12:44:35 2025

Wall Time:       14.59 seconds

                                                       Time (seconds)
Module                                       User      System        Wall        Calls

--------------------------------------------------------------------------------------

**************************************************************************************

Host: TUF

Timers On : Fri Jul 11 12:48:14 2025
Timers Off: Fri Jul 11 12:48:18 2025

Wall Time:        4.03 seconds

                                                       Time (seconds)
Module                                       User      System        Wall        Calls

--------------------------------------------------------------------------------------

**************************************************************************************

Host: TUF

Timers On : Fri Jul 11 12:49:27 2025
Timers Off: Fri Jul 11 12:49:32 2025

Wall Time:        4.29 seconds

                                                       Time (seconds)
Module                                       User      System        Wall        Calls

--------------------------------------------------------------------------------------

**************************************************************************************

Host: TUF

Timers On : Fri Jul 11 12:50:33 2025
Timers Off: Fri Jul 11 12:50:37 2025

Wall Time:        4.11 seconds

                                                       Time (seconds)
Module                                       User      System        Wall        Calls

--------------------------------------------------------------------------------------

**************************************************************************************

Host: TUF

Timers On : Fri Jul 11 12:51:42 2025
Timers Off: Fri Jul 11 12:51:58 2025

Wall Time:       16.20 seconds

                                                       Time (seconds)
Module                                       User      System        Wall        Calls

--------------------------------------------------------------------------------------

**************************************************************************************

Host: TUF

Timers On : Fri Jul 11 12:55:31 2025
Timers Off: Fri Jul 11 12:55:47 2025

Wall Time:       16.27 seconds

                                                       Time (seconds)
Module                                       User      System        Wall        Calls

--------------------------------------------------------------------------------------

**************************************************************************************

Host: TUF

Timers On : Fri Jul 11 12:56:30 2025
Timers Off: Fri Jul 11 12:56:46 2025

Wall Time:       15.48 seconds

                                                       Time (seconds)
Module                                       User      System        Wall        Calls

--------------------------------------------------------------------------------------

**************************************************************************************

Host: TUF

Timers On : Fri Jul 11 12:57:14 2025
Timers Off: Fri Jul 11 12:57:31 2025

Wall Time:       16.09 seconds

                                                       Time (seconds)
Module                                       User      System        Wall        Calls

--------------------------------------------------------------------------------------

**************************************************************************************

Host: TUF

Timers On : Fri Jul 11 13:04:35 2025
Timers Off: Fri Jul 11 13:04:50 2025

Wall Time:       15.42 seconds

                                                       Time (seconds)
Module                                       User      System        Wall        Calls

--------------------------------------------------------------------------------------

**************************************************************************************

Host: TUF

Timers On : Mon Jul 14 11:24:12 2025
Timers Off: Mon Jul 14 11:24:47 2025

Wall Time:       35.04 seconds

                                                       Time (seconds)
Module                                       User      System        Wall        Calls

--------------------------------------------------------------------------------------

**************************************************************************************

Host: TUF

Timers On : Mon Jul 14 11:55:30 2025
Timers Off: Mon Jul 14 11:55:31 2025

Wall Time:        1.64 seconds

                                                       Time (seconds)
Module                                       User      System        Wall        Calls

--------------------------------------------------------------------------------------

**************************************************************************************

Host: TUF

Timers On : Mon Jul 14 11:55:56 2025
Timers Off: Mon Jul 14 11:56:14 2025

Wall Time:       18.70 seconds

                                                       Time (seconds)
Module                                       User      System        Wall        Calls

--------------------------------------------------------------------------------------

**************************************************************************************

Host: TUF

Timers On : Mon Jul 14 11:57:24 2025
Timers Off: Mon Jul 14 11:57:42 2025

Wall Time:       18.54 seconds

                                                       Time (seconds)
Module                                       User      System        Wall        Calls

--------------------------------------------------------------------------------------

**************************************************************************************

Host: TUF

Timers On : Mon Jul 14 12:05:47 2025
Timers Off: Mon Jul 14 12:06:08 2025

Wall Time:       20.25 seconds

                                                       Time (seconds)
Module                                       User      System        Wall        Calls

--------------------------------------------------------------------------------------

**************************************************************************************

Host: TUF

Timers On : Mon Jul 14 12:09:26 2025
Timers Off: Mon Jul 14 12:09:32 2025

Wall Time:        5.92 seconds

                                                       Time (seconds)
Module                                       User      System        Wall        Calls

--------------------------------------------------------------------------------------

**************************************************************************************

Host: TUF

Timers On : Mon Jul 14 12:09:34 2025
Timers Off: Mon Jul 14 12:09:55 2025

Wall Time:       20.93 seconds

                                                       Time (seconds)
Module                                       User      System        Wall        Calls

--------------------------------------------------------------------------------------

**************************************************************************************

Host: TUF

Timers On : Mon Jul 14 12:11:39 2025
Timers Off: Mon Jul 14 12:11:59 2025

Wall Time:       19.67 seconds

                                                       Time (seconds)
Module                                       User      System        Wall        Calls

--------------------------------------------------------------------------------------

**************************************************************************************

Host: TUF

Timers On : Mon Jul 14 12:14:21 2025
Timers Off: Mon Jul 14 12:14:40 2025

Wall Time:       19.08 seconds

                                                       Time (seconds)
Module                                       User      System        Wall        Calls

--------------------------------------------------------------------------------------

**************************************************************************************

Host: TUF

Timers On : Mon Jul 14 12:16:05 2025
Timers Off: Mon Jul 14 12:16:24 2025

Wall Time:       19.39 seconds

                                                       Time (seconds)
Module                                       User      System        Wall        Calls

--------------------------------------------------------------------------------------

**************************************************************************************

Host: TUF

Timers On : Mon Jul 14 12:23:49 2025
Timers Off: Mon Jul 14 12:24:09 2025

Wall Time:       19.56 seconds

                                                       Time (seconds)
Module                                       User      System        Wall        Calls

--------------------------------------------------------------------------------------

**************************************************************************************

Host: TUF

Timers On : Mon Jul 14 12:25:23 2025
Timers Off: Mon Jul 14 12:25:42 2025

Wall Time:       18.98 seconds

                                                       Time (seconds)
Module                                       User      System        Wall        Calls

--------------------------------------------------------------------------------------

**************************************************************************************

Host: TUF

Timers On : Mon Jul 14 12:26:15 2025
Timers Off: Mon Jul 14 12:26:36 2025

Wall Time:       21.12 seconds

                                                       Time (seconds)
Module                                       User      System        Wall        Calls

--------------------------------------------------------------------------------------

**************************************************************************************

Host: TUF

Timers On : Mon Jul 14 12:30:12 2025
Timers Off: Mon Jul 14 12:30:32 2025

Wall Time:       19.76 seconds

                                                       Time (seconds)
Module                                       User      System        Wall        Calls

--------------------------------------------------------------------------------------

**************************************************************************************

Host: TUF

Timers On : Mon Jul 14 12:31:30 2025
Timers Off: Mon Jul 14 12:31:51 2025

Wall Time:       21.08 seconds

                                                       Time (seconds)
Module                                       User      System        Wall        Calls

--------------------------------------------------------------------------------------

**************************************************************************************

Host: TUF

Timers On : Mon Jul 14 12:31:52 2025
Timers Off: Mon Jul 14 12:32:13 2025

Wall Time:       20.66 seconds

                                                       Time (seconds)
Module                                       User      System        Wall        Calls

--------------------------------------------------------------------------------------

**************************************************************************************

Host: TUF

Timers On : Mon Jul 14 15:53:58 2025
Timers Off: Mon Jul 14 15:54:19 2025

Wall Time:       21.06 seconds

                                                       Time (seconds)
Module                                       User      System        Wall        Calls

--------------------------------------------------------------------------------------

**************************************************************************************

Host: TUF

Timers On : Mon Jul 14 15:56:23 2025
Timers Off: Mon Jul 14 15:57:19 2025

Wall Time:       56.25 seconds

                                                       Time (seconds)
Module                                       User      System        Wall        Calls

--------------------------------------------------------------------------------------

**************************************************************************************

Host: TUF

Timers On : Mon Jul 14 15:58:50 2025
Timers Off: Mon Jul 14 15:58:52 2025

Wall Time:        2.67 seconds

                                                       Time (seconds)
Module                                       User      System        Wall        Calls

--------------------------------------------------------------------------------------

**************************************************************************************

Host: TUF

Timers On : Mon Jul 14 15:59:02 2025
Timers Off: Mon Jul 14 15:59:21 2025

Wall Time:       18.86 seconds

                                                       Time (seconds)
Module                                       User      System        Wall        Calls

--------------------------------------------------------------------------------------

**************************************************************************************

Host: TUF

Timers On : Mon Jul 14 16:00:42 2025
Timers Off: Mon Jul 14 16:01:02 2025

Wall Time:       19.81 seconds

                                                       Time (seconds)
Module                                       User      System        Wall        Calls

--------------------------------------------------------------------------------------

**************************************************************************************

Host: TUF

Timers On : Mon Jul 14 16:03:12 2025
Timers Off: Mon Jul 14 16:03:31 2025

Wall Time:       19.00 seconds

                                                       Time (seconds)
Module                                       User      System        Wall        Calls

--------------------------------------------------------------------------------------

**************************************************************************************

Host: TUF

Timers On : Mon Jul 14 16:10:33 2025
Timers Off: Mon Jul 14 16:10:51 2025

Wall Time:       18.49 seconds

                                                       Time (seconds)
Module                                       User      System        Wall        Calls

--------------------------------------------------------------------------------------

**************************************************************************************

Host: TUF

Timers On : Mon Jul 14 16:11:09 2025
Timers Off: Mon Jul 14 16:11:27 2025

Wall Time:       18.74 seconds

                                                       Time (seconds)
Module                                       User      System        Wall        Calls

--------------------------------------------------------------------------------------

**************************************************************************************

Host: TUF

Timers On : Mon Jul 14 16:11:38 2025
Timers Off: Mon Jul 14 16:12:00 2025

Wall Time:       21.38 seconds

                                                       Time (seconds)
Module                                       User      System        Wall        Calls

--------------------------------------------------------------------------------------

**************************************************************************************

Host: TUF

Timers On : Mon Jul 14 16:13:18 2025
Timers Off: Mon Jul 14 16:13:37 2025

Wall Time:       19.73 seconds

                                                       Time (seconds)
Module                                       User      System        Wall        Calls

--------------------------------------------------------------------------------------

**************************************************************************************

Host: TUF

Timers On : Mon Jul 14 16:13:54 2025
Timers Off: Mon Jul 14 16:14:12 2025

Wall Time:       18.33 seconds

                                                       Time (seconds)
Module                                       User      System        Wall        Calls

--------------------------------------------------------------------------------------

**************************************************************************************

Host: TUF

Timers On : Mon Jul 14 16:17:21 2025
Timers Off: Mon Jul 14 16:17:41 2025

Wall Time:       20.16 seconds

                                                       Time (seconds)
Module                                       User      System        Wall        Calls

--------------------------------------------------------------------------------------

**************************************************************************************

Host: TUF

Timers On : Mon Jul 14 16:17:49 2025
Timers Off: Mon Jul 14 16:18:09 2025

Wall Time:       19.76 seconds

                                                       Time (seconds)
Module                                       User      System        Wall        Calls

--------------------------------------------------------------------------------------

**************************************************************************************

Host: TUF

Timers On : Mon Jul 14 16:18:30 2025
Timers Off: Mon Jul 14 16:18:49 2025

Wall Time:       19.15 seconds

                                                       Time (seconds)
Module                                       User      System        Wall        Calls

--------------------------------------------------------------------------------------

**************************************************************************************

Host: TUF

Timers On : Mon Jul 14 16:19:16 2025
Timers Off: Mon Jul 14 16:19:35 2025

Wall Time:       19.45 seconds

                                                       Time (seconds)
Module                                       User      System        Wall        Calls

--------------------------------------------------------------------------------------

**************************************************************************************

Host: TUF

Timers On : Mon Jul 14 16:19:42 2025
Timers Off: Mon Jul 14 16:20:01 2025

Wall Time:       19.34 seconds

                                                       Time (seconds)
Module                                       User      System        Wall        Calls

--------------------------------------------------------------------------------------

**************************************************************************************

Host: TUF

Timers On : Mon Jul 14 16:20:37 2025
Timers Off: Mon Jul 14 16:20:56 2025

Wall Time:       19.22 seconds

                                                       Time (seconds)
Module                                       User      System        Wall        Calls

--------------------------------------------------------------------------------------

**************************************************************************************

Host: TUF

Timers On : Mon Jul 14 19:31:05 2025
Timers Off: Mon Jul 14 19:31:46 2025

Wall Time:       41.35 seconds

                                                       Time (seconds)
Module                                       User      System        Wall        Calls

--------------------------------------------------------------------------------------

**************************************************************************************

Host: TUF

Timers On : Mon Jul 14 19:32:32 2025
Timers Off: Mon Jul 14 19:32:42 2025

Wall Time:        9.52 seconds

                                                       Time (seconds)
Module                                       User      System        Wall        Calls

--------------------------------------------------------------------------------------

**************************************************************************************

Host: TUF

Timers On : Mon Jul 14 19:32:50 2025
Timers Off: Mon Jul 14 19:33:05 2025

Wall Time:       14.96 seconds

                                                       Time (seconds)
Module                                       User      System        Wall        Calls

--------------------------------------------------------------------------------------

**************************************************************************************

Host: TUF

Timers On : Mon Jul 14 19:33:53 2025
Timers Off: Mon Jul 14 19:34:08 2025

Wall Time:       15.11 seconds

                                                       Time (seconds)
Module                                       User      System        Wall        Calls

--------------------------------------------------------------------------------------

**************************************************************************************

Host: TUF

Timers On : Mon Jul 14 19:38:04 2025
Timers Off: Mon Jul 14 19:38:07 2025

Wall Time:        2.51 seconds

                                                       Time (seconds)
Module                                       User      System        Wall        Calls

--------------------------------------------------------------------------------------

**************************************************************************************

Host: TUF

Timers On : Mon Jul 14 19:38:12 2025
Timers Off: Mon Jul 14 19:38:28 2025

Wall Time:       15.58 seconds

                                                       Time (seconds)
Module                                       User      System        Wall        Calls

--------------------------------------------------------------------------------------

**************************************************************************************

Host: TUF

Timers On : Mon Jul 14 19:40:37 2025
Timers Off: Mon Jul 14 19:40:52 2025

Wall Time:       15.04 seconds

                                                       Time (seconds)
Module                                       User      System        Wall        Calls

--------------------------------------------------------------------------------------

**************************************************************************************

Host: TUF

Timers On : Mon Jul 14 19:42:01 2025
Timers Off: Mon Jul 14 19:42:14 2025

Wall Time:       13.25 seconds

                                                       Time (seconds)
Module                                       User      System        Wall        Calls

--------------------------------------------------------------------------------------

**************************************************************************************

Host: TUF

Timers On : Mon Jul 14 19:42:30 2025
Timers Off: Mon Jul 14 19:42:44 2025

Wall Time:       14.74 seconds

                                                       Time (seconds)
Module                                       User      System        Wall        Calls

--------------------------------------------------------------------------------------

**************************************************************************************

Host: TUF

Timers On : Mon Jul 14 19:43:12 2025
Timers Off: Mon Jul 14 19:43:27 2025

Wall Time:       14.76 seconds

                                                       Time (seconds)
Module                                       User      System        Wall        Calls

--------------------------------------------------------------------------------------

**************************************************************************************

Host: TUF

Timers On : Mon Jul 14 19:44:10 2025
Timers Off: Mon Jul 14 19:44:25 2025

Wall Time:       14.85 seconds

                                                       Time (seconds)
Module                                       User      System        Wall        Calls

--------------------------------------------------------------------------------------

**************************************************************************************

Host: TUF

Timers On : Mon Jul 14 19:45:22 2025
Timers Off: Mon Jul 14 19:45:36 2025

Wall Time:       14.51 seconds

                                                       Time (seconds)
Module                                       User      System        Wall        Calls

--------------------------------------------------------------------------------------

**************************************************************************************

Host: TUF

Timers On : Mon Jul 14 19:46:07 2025
Timers Off: Mon Jul 14 19:46:22 2025

Wall Time:       14.57 seconds

                                                       Time (seconds)
Module                                       User      System        Wall        Calls

--------------------------------------------------------------------------------------

**************************************************************************************

Host: TUF

Timers On : Mon Jul 14 19:47:47 2025
Timers Off: Mon Jul 14 19:48:01 2025

Wall Time:       14.63 seconds

                                                       Time (seconds)
Module                                       User      System        Wall        Calls

--------------------------------------------------------------------------------------

**************************************************************************************

Host: TUF

Timers On : Mon Jul 14 19:49:29 2025
Timers Off: Mon Jul 14 19:49:44 2025

Wall Time:       14.62 seconds

                                                       Time (seconds)
Module                                       User      System        Wall        Calls

--------------------------------------------------------------------------------------

**************************************************************************************

Host: TUF

Timers On : Mon Jul 14 19:50:12 2025
Timers Off: Mon Jul 14 19:50:27 2025

Wall Time:       15.53 seconds

                                                       Time (seconds)
Module                                       User      System        Wall        Calls

--------------------------------------------------------------------------------------

**************************************************************************************

Host: TUF

Timers On : Mon Jul 14 20:03:59 2025
Timers Off: Mon Jul 14 20:04:14 2025

Wall Time:       14.37 seconds

                                                       Time (seconds)
Module                                       User      System        Wall        Calls

--------------------------------------------------------------------------------------

**************************************************************************************

Host: TUF

Timers On : Mon Jul 14 20:07:28 2025
Timers Off: Mon Jul 14 20:07:43 2025

Wall Time:       14.56 seconds

                                                       Time (seconds)
Module                                       User      System        Wall        Calls

--------------------------------------------------------------------------------------

**************************************************************************************

Host: TUF

Timers On : Mon Jul 14 20:10:23 2025
Timers Off: Mon Jul 14 20:10:38 2025

Wall Time:       15.26 seconds

                                                       Time (seconds)
Module                                       User      System        Wall        Calls

--------------------------------------------------------------------------------------

**************************************************************************************

Host: TUF

Timers On : Mon Jul 14 20:11:46 2025
Timers Off: Mon Jul 14 20:12:02 2025

Wall Time:       15.60 seconds

                                                       Time (seconds)
Module                                       User      System        Wall        Calls

--------------------------------------------------------------------------------------

**************************************************************************************

Host: TUF

Timers On : Mon Jul 14 20:12:33 2025
Timers Off: Mon Jul 14 20:12:49 2025

Wall Time:       15.15 seconds

                                                       Time (seconds)
Module                                       User      System        Wall        Calls

--------------------------------------------------------------------------------------

**************************************************************************************

Host: TUF

Timers On : Mon Jul 14 20:15:01 2025
Timers Off: Mon Jul 14 20:15:17 2025

Wall Time:       15.57 seconds

                                                       Time (seconds)
Module                                       User      System        Wall        Calls

--------------------------------------------------------------------------------------

**************************************************************************************

Host: TUF

Timers On : Mon Jul 14 20:17:32 2025
Timers Off: Mon Jul 14 20:17:47 2025

Wall Time:       14.73 seconds

                                                       Time (seconds)
Module                                       User      System        Wall        Calls

--------------------------------------------------------------------------------------

**************************************************************************************

Host: TUF

Timers On : Mon Jul 14 20:29:30 2025
Timers Off: Mon Jul 14 20:29:45 2025

Wall Time:       14.64 seconds

                                                       Time (seconds)
Module                                       User      System        Wall        Calls

--------------------------------------------------------------------------------------

**************************************************************************************

Host: TUF

Timers On : Mon Jul 14 20:31:29 2025
Timers Off: Mon Jul 14 20:31:43 2025

Wall Time:       14.52 seconds

                                                       Time (seconds)
Module                                       User      System        Wall        Calls

--------------------------------------------------------------------------------------

**************************************************************************************

Host: TUF

Timers On : Mon Jul 14 20:49:07 2025
Timers Off: Mon Jul 14 20:49:22 2025

Wall Time:       14.37 seconds

                                                       Time (seconds)
Module                                       User      System        Wall        Calls

--------------------------------------------------------------------------------------

**************************************************************************************

Host: TUF

Timers On : Mon Jul 14 21:36:19 2025
Timers Off: Mon Jul 14 21:36:38 2025

Wall Time:       18.81 seconds

                                                       Time (seconds)
Module                                       User      System        Wall        Calls

--------------------------------------------------------------------------------------

**************************************************************************************

Host: TUF

Timers On : Mon Jul 14 21:48:56 2025
Timers Off: Mon Jul 14 21:49:14 2025

Wall Time:       18.57 seconds

                                                       Time (seconds)
Module                                       User      System        Wall        Calls

--------------------------------------------------------------------------------------

**************************************************************************************

Host: TUF

Timers On : Mon Jul 14 21:49:27 2025
Timers Off: Mon Jul 14 21:49:46 2025

Wall Time:       18.87 seconds

                                                       Time (seconds)
Module                                       User      System        Wall        Calls

--------------------------------------------------------------------------------------

**************************************************************************************

Host: TUF

Timers On : Mon Jul 14 21:50:15 2025
Timers Off: Mon Jul 14 21:50:33 2025

Wall Time:       18.29 seconds

                                                       Time (seconds)
Module                                       User      System        Wall        Calls

--------------------------------------------------------------------------------------

**************************************************************************************

Host: TUF

Timers On : Mon Jul 14 21:50:52 2025
Timers Off: Mon Jul 14 21:51:11 2025

Wall Time:       19.31 seconds

                                                       Time (seconds)
Module                                       User      System        Wall        Calls

--------------------------------------------------------------------------------------

**************************************************************************************

Host: TUF

Timers On : Mon Jul 14 21:53:31 2025
Timers Off: Mon Jul 14 21:53:53 2025

Wall Time:       21.93 seconds

                                                       Time (seconds)
Module                                       User      System        Wall        Calls

--------------------------------------------------------------------------------------

**************************************************************************************

Host: TUF

Timers On : Mon Jul 14 21:57:13 2025
Timers Off: Mon Jul 14 21:57:33 2025

Wall Time:       19.85 seconds

                                                       Time (seconds)
Module                                       User      System        Wall        Calls

--------------------------------------------------------------------------------------

**************************************************************************************

Host: TUF

Timers On : Mon Jul 14 21:57:57 2025
Timers Off: Mon Jul 14 21:58:17 2025

Wall Time:       19.17 seconds

                                                       Time (seconds)
Module                                       User      System        Wall        Calls

--------------------------------------------------------------------------------------

**************************************************************************************

Host: TUF

Timers On : Mon Jul 14 21:58:48 2025
Timers Off: Mon Jul 14 21:59:07 2025

Wall Time:       19.12 seconds

                                                       Time (seconds)
Module                                       User      System        Wall        Calls

--------------------------------------------------------------------------------------

**************************************************************************************

Host: TUF

Timers On : Mon Jul 14 22:00:05 2025
Timers Off: Mon Jul 14 22:00:24 2025

Wall Time:       18.91 seconds

                                                       Time (seconds)
Module                                       User      System        Wall        Calls

--------------------------------------------------------------------------------------

**************************************************************************************

Host: TUF

Timers On : Mon Jul 14 22:01:09 2025
Timers Off: Mon Jul 14 22:01:28 2025

Wall Time:       19.31 seconds

                                                       Time (seconds)
Module                                       User      System        Wall        Calls

--------------------------------------------------------------------------------------

**************************************************************************************

Host: TUF

Timers On : Mon Jul 14 22:02:08 2025
Timers Off: Mon Jul 14 22:02:28 2025

Wall Time:       19.33 seconds

                                                       Time (seconds)
Module                                       User      System        Wall        Calls

--------------------------------------------------------------------------------------

**************************************************************************************

Host: TUF

Timers On : Mon Jul 14 22:03:32 2025
Timers Off: Mon Jul 14 22:03:51 2025

Wall Time:       19.13 seconds

                                                       Time (seconds)
Module                                       User      System        Wall        Calls

--------------------------------------------------------------------------------------

**************************************************************************************

Host: TUF

Timers On : Mon Jul 14 22:06:32 2025
Timers Off: Mon Jul 14 22:06:51 2025

Wall Time:       19.01 seconds

                                                       Time (seconds)
Module                                       User      System        Wall        Calls

--------------------------------------------------------------------------------------

**************************************************************************************

Host: TUF

Timers On : Mon Jul 14 22:07:34 2025
Timers Off: Mon Jul 14 22:07:54 2025

Wall Time:       19.63 seconds

                                                       Time (seconds)
Module                                       User      System        Wall        Calls

--------------------------------------------------------------------------------------

**************************************************************************************

Host: TUF

Timers On : Tue Jul 15 03:07:05 2025
Timers Off: Tue Jul 15 03:07:26 2025

Wall Time:       21.18 seconds

                                                       Time (seconds)
Module                                       User      System        Wall        Calls

--------------------------------------------------------------------------------------

**************************************************************************************

Host: TUF

Timers On : Tue Jul 15 03:08:21 2025
Timers Off: Tue Jul 15 03:09:18 2025

Wall Time:       56.43 seconds

                                                       Time (seconds)
Module                                       User      System        Wall        Calls

--------------------------------------------------------------------------------------

**************************************************************************************

Host: TUF

Timers On : Wed Jul 16 11:06:59 2025
Timers Off: Wed Jul 16 11:07:15 2025

Wall Time:       15.86 seconds

                                                       Time (seconds)
Module                                       User      System        Wall        Calls

--------------------------------------------------------------------------------------

**************************************************************************************

Host: TUF

Timers On : Wed Jul 16 11:08:04 2025
Timers Off: Wed Jul 16 11:08:21 2025

Wall Time:       16.56 seconds

                                                       Time (seconds)
Module                                       User      System        Wall        Calls

--------------------------------------------------------------------------------------

**************************************************************************************

Host: TUF

Timers On : Wed Jul 16 11:12:56 2025
Timers Off: Wed Jul 16 11:13:12 2025

Wall Time:       16.64 seconds

                                                       Time (seconds)
Module                                       User      System        Wall        Calls

--------------------------------------------------------------------------------------

**************************************************************************************

Host: TUF

Timers On : Wed Jul 16 12:35:26 2025
Timers Off: Wed Jul 16 12:35:27 2025

Wall Time:        0.91 seconds

                                                       Time (seconds)
Module                                       User      System        Wall        Calls

--------------------------------------------------------------------------------------

**************************************************************************************

Host: TUF

Timers On : Wed Jul 16 12:35:41 2025
Timers Off: Wed Jul 16 12:35:57 2025

Wall Time:       16.45 seconds

                                                       Time (seconds)
Module                                       User      System        Wall        Calls

--------------------------------------------------------------------------------------

**************************************************************************************

Host: TUF

Timers On : Wed Jul 16 12:44:15 2025
Timers Off: Wed Jul 16 12:44:30 2025

Wall Time:       15.38 seconds

                                                       Time (seconds)
Module                                       User      System        Wall        Calls

--------------------------------------------------------------------------------------

**************************************************************************************

Host: TUF

Timers On : Wed Jul 16 12:49:23 2025
Timers Off: Wed Jul 16 12:49:38 2025

Wall Time:       14.94 seconds

                                                       Time (seconds)
Module                                       User      System        Wall        Calls

--------------------------------------------------------------------------------------

**************************************************************************************

Host: TUF

Timers On : Wed Jul 16 12:50:10 2025
Timers Off: Wed Jul 16 12:50:11 2025

Wall Time:        0.84 seconds

                                                       Time (seconds)
Module                                       User      System        Wall        Calls

--------------------------------------------------------------------------------------

**************************************************************************************

Host: TUF

Timers On : Wed Jul 16 12:50:22 2025
Timers Off: Wed Jul 16 12:50:38 2025

Wall Time:       15.72 seconds

                                                       Time (seconds)
Module                                       User      System        Wall        Calls

--------------------------------------------------------------------------------------

**************************************************************************************

Host: TUF

Timers On : Wed Jul 16 13:29:04 2025
Timers Off: Wed Jul 16 13:29:07 2025

Wall Time:        2.10 seconds

                                                       Time (seconds)
Module                                       User      System        Wall        Calls

--------------------------------------------------------------------------------------

**************************************************************************************

Host: TUF

Timers On : Wed Jul 16 13:29:14 2025
Timers Off: Wed Jul 16 13:29:36 2025

Wall Time:       22.68 seconds

                                                       Time (seconds)
Module                                       User      System        Wall        Calls

--------------------------------------------------------------------------------------

**************************************************************************************

Host: TUF

Timers On : Wed Jul 16 13:34:54 2025
Timers Off: Wed Jul 16 13:35:17 2025

Wall Time:       22.70 seconds

                                                       Time (seconds)
Module                                       User      System        Wall        Calls

--------------------------------------------------------------------------------------

**************************************************************************************

Host: TUF

Timers On : Wed Jul 16 13:35:28 2025
Timers Off: Wed Jul 16 13:36:11 2025

Wall Time:       42.84 seconds

                                                       Time (seconds)
Module                                       User      System        Wall        Calls

--------------------------------------------------------------------------------------

**************************************************************************************

Host: TUF

Timers On : Wed Jul 16 13:40:23 2025
Timers Off: Wed Jul 16 13:41:24 2025

Wall Time:       60.49 seconds

                                                       Time (seconds)
Module                                       User      System        Wall        Calls

--------------------------------------------------------------------------------------

**************************************************************************************

Host: TUF

Timers On : Thu Jul 17 12:44:00 2025
Timers Off: Thu Jul 17 12:44:14 2025

Wall Time:       14.74 seconds

                                                       Time (seconds)
Module                                       User      System        Wall        Calls

--------------------------------------------------------------------------------------

**************************************************************************************
