
Host: TUF

Timers On : Thu Jul 10 15:24:01 2025
Timers Off: Thu Jul 10 15:24:03 2025

Wall Time:        2.51 seconds

                                                       Time (seconds)
Module                                       User      System        Wall        Calls

--------------------------------------------------------------------------------------

**************************************************************************************

Host: TUF

Timers On : Thu Jul 10 15:24:24 2025
Timers Off: Thu Jul 10 15:24:27 2025

Wall Time:        2.92 seconds

                                                       Time (seconds)
Module                                       User      System        Wall        Calls

--------------------------------------------------------------------------------------

**************************************************************************************

Host: TUF

Timers On : Thu Jul 10 15:25:02 2025
Timers Off: Thu Jul 10 15:25:05 2025

Wall Time:        2.48 seconds

                                                       Time (seconds)
Module                                       User      System        Wall        Calls

--------------------------------------------------------------------------------------

**************************************************************************************

Host: TUF

Timers On : Thu Jul 10 15:25:22 2025
Timers Off: Thu Jul 10 15:25:24 2025

Wall Time:        2.77 seconds

                                                       Time (seconds)
Module                                       User      System        Wall        Calls

--------------------------------------------------------------------------------------

**************************************************************************************

Host: TUF

Timers On : Thu Jul 10 15:25:39 2025
Timers Off: Thu Jul 10 15:25:42 2025

Wall Time:        3.03 seconds

                                                       Time (seconds)
Module                                       User      System        Wall        Calls

--------------------------------------------------------------------------------------

**************************************************************************************

Host: TUF

Timers On : Thu Jul 10 15:28:20 2025
Timers Off: Thu Jul 10 15:28:23 2025

Wall Time:        2.69 seconds

                                                       Time (seconds)
Module                                       User      System        Wall        Calls

--------------------------------------------------------------------------------------

**************************************************************************************

Host: TUF

Timers On : Thu Jul 10 15:29:11 2025
Timers Off: Thu Jul 10 15:29:13 2025

Wall Time:        2.12 seconds

                                                       Time (seconds)
Module                                       User      System        Wall        Calls

--------------------------------------------------------------------------------------

**************************************************************************************

Host: TUF

Timers On : Thu Jul 10 15:30:50 2025
Timers Off: Thu Jul 10 15:30:53 2025

Wall Time:        2.90 seconds

                                                       Time (seconds)
Module                                       User      System        Wall        Calls

--------------------------------------------------------------------------------------

**************************************************************************************

Host: TUF

Timers On : Thu Jul 10 15:31:22 2025
Timers Off: Thu Jul 10 15:31:25 2025

Wall Time:        2.58 seconds

                                                       Time (seconds)
Module                                       User      System        Wall        Calls

--------------------------------------------------------------------------------------

**************************************************************************************

Host: TUF

Timers On : Thu Jul 10 15:31:44 2025
Timers Off: Thu Jul 10 15:31:49 2025

Wall Time:        4.56 seconds

                                                       Time (seconds)
Module                                       User      System        Wall        Calls

--------------------------------------------------------------------------------------

**************************************************************************************

Host: TUF

Timers On : Thu Jul 10 15:33:16 2025
Timers Off: Thu Jul 10 15:33:19 2025

Wall Time:        3.32 seconds

                                                       Time (seconds)
Module                                       User      System        Wall        Calls

--------------------------------------------------------------------------------------

**************************************************************************************

Host: TUF

Timers On : Thu Jul 10 15:33:46 2025
Timers Off: Thu Jul 10 15:33:49 2025

Wall Time:        3.45 seconds

                                                       Time (seconds)
Module                                       User      System        Wall        Calls

--------------------------------------------------------------------------------------

**************************************************************************************

Host: TUF

Timers On : Thu Jul 10 15:36:26 2025
Timers Off: Thu Jul 10 15:36:29 2025

Wall Time:        3.70 seconds

                                                       Time (seconds)
Module                                       User      System        Wall        Calls

--------------------------------------------------------------------------------------

**************************************************************************************

Host: TUF

Timers On : Thu Jul 10 15:47:15 2025
Timers Off: Thu Jul 10 15:47:18 2025

Wall Time:        3.72 seconds

                                                       Time (seconds)
Module                                       User      System        Wall        Calls

--------------------------------------------------------------------------------------

**************************************************************************************

Host: TUF

Timers On : Thu Jul 10 15:48:11 2025
Timers Off: Thu Jul 10 15:48:14 2025

Wall Time:        3.77 seconds

                                                       Time (seconds)
Module                                       User      System        Wall        Calls

--------------------------------------------------------------------------------------

**************************************************************************************

Host: TUF

Timers On : Thu Jul 10 16:08:12 2025
Timers Off: Thu Jul 10 16:08:15 2025

Wall Time:        3.05 seconds

                                                       Time (seconds)
Module                                       User      System        Wall        Calls

--------------------------------------------------------------------------------------

**************************************************************************************

Host: TUF

Timers On : Thu Jul 10 16:08:37 2025
Timers Off: Thu Jul 10 16:08:44 2025

Wall Time:        6.70 seconds

                                                       Time (seconds)
Module                                       User      System        Wall        Calls

--------------------------------------------------------------------------------------

**************************************************************************************

Host: TUF

Timers On : Thu Jul 10 16:14:26 2025
Timers Off: Thu Jul 10 16:14:35 2025

Wall Time:        8.97 seconds

                                                       Time (seconds)
Module                                       User      System        Wall        Calls

--------------------------------------------------------------------------------------

**************************************************************************************

Host: TUF

Timers On : Thu Jul 10 16:17:34 2025
Timers Off: Thu Jul 10 16:17:41 2025

Wall Time:        6.98 seconds

                                                       Time (seconds)
Module                                       User      System        Wall        Calls

--------------------------------------------------------------------------------------

**************************************************************************************

Host: TUF

Timers On : Thu Jul 10 16:19:00 2025
Timers Off: Thu Jul 10 16:19:07 2025

Wall Time:        6.81 seconds

                                                       Time (seconds)
Module                                       User      System        Wall        Calls

--------------------------------------------------------------------------------------

**************************************************************************************

Host: TUF

Timers On : Thu Jul 10 16:19:32 2025
Timers Off: Thu Jul 10 16:19:40 2025

Wall Time:        7.74 seconds

                                                       Time (seconds)
Module                                       User      System        Wall        Calls

--------------------------------------------------------------------------------------

**************************************************************************************

Host: TUF

Timers On : Thu Jul 10 16:22:32 2025
Timers Off: Thu Jul 10 16:22:39 2025

Wall Time:        7.21 seconds

                                                       Time (seconds)
Module                                       User      System        Wall        Calls

--------------------------------------------------------------------------------------

**************************************************************************************

Host: TUF

Timers On : Thu Jul 10 16:26:47 2025
Timers Off: Thu Jul 10 16:26:50 2025

Wall Time:        2.98 seconds

                                                       Time (seconds)
Module                                       User      System        Wall        Calls

--------------------------------------------------------------------------------------

**************************************************************************************

Host: TUF

Timers On : Thu Jul 10 16:42:59 2025
Timers Off: Thu Jul 10 16:43:04 2025

Wall Time:        4.79 seconds

                                                       Time (seconds)
Module                                       User      System        Wall        Calls

--------------------------------------------------------------------------------------

**************************************************************************************

Host: TUF

Timers On : Thu Jul 10 16:44:00 2025
Timers Off: Thu Jul 10 16:44:04 2025

Wall Time:        4.39 seconds

                                                       Time (seconds)
Module                                       User      System        Wall        Calls

--------------------------------------------------------------------------------------

**************************************************************************************

Host: TUF

Timers On : Thu Jul 10 16:45:24 2025
Timers Off: Thu Jul 10 16:45:28 2025

Wall Time:        3.66 seconds

                                                       Time (seconds)
Module                                       User      System        Wall        Calls

--------------------------------------------------------------------------------------

**************************************************************************************

Host: TUF

Timers On : Thu Jul 10 17:05:11 2025
Timers Off: Thu Jul 10 17:05:16 2025

Wall Time:        4.84 seconds

                                                       Time (seconds)
Module                                       User      System        Wall        Calls

--------------------------------------------------------------------------------------

**************************************************************************************

Host: TUF

Timers On : Thu Jul 10 17:06:06 2025
Timers Off: Thu Jul 10 17:06:09 2025

Wall Time:        3.45 seconds

                                                       Time (seconds)
Module                                       User      System        Wall        Calls

--------------------------------------------------------------------------------------

**************************************************************************************

Host: TUF

Timers On : Thu Jul 10 17:07:15 2025
Timers Off: Thu Jul 10 17:07:18 2025

Wall Time:        3.10 seconds

                                                       Time (seconds)
Module                                       User      System        Wall        Calls

--------------------------------------------------------------------------------------

**************************************************************************************

Host: TUF

Timers On : Thu Jul 10 17:11:01 2025
Timers Off: Thu Jul 10 17:11:05 2025

Wall Time:        4.13 seconds

                                                       Time (seconds)
Module                                       User      System        Wall        Calls

--------------------------------------------------------------------------------------

**************************************************************************************

Host: TUF

Timers On : Thu Jul 10 17:12:19 2025
Timers Off: Thu Jul 10 17:12:29 2025

Wall Time:       10.22 seconds

                                                       Time (seconds)
Module                                       User      System        Wall        Calls

--------------------------------------------------------------------------------------

**************************************************************************************

Host: TUF

Timers On : Thu Jul 10 17:23:40 2025
Timers Off: Thu Jul 10 17:23:50 2025

Wall Time:       10.31 seconds

                                                       Time (seconds)
Module                                       User      System        Wall        Calls

--------------------------------------------------------------------------------------

**************************************************************************************

Host: TUF

Timers On : Thu Jul 10 17:24:36 2025
Timers Off: Thu Jul 10 17:24:47 2025

Wall Time:       10.38 seconds

                                                       Time (seconds)
Module                                       User      System        Wall        Calls

--------------------------------------------------------------------------------------

**************************************************************************************

Host: TUF

Timers On : Thu Jul 10 17:25:03 2025
Timers Off: Thu Jul 10 17:25:13 2025

Wall Time:        9.19 seconds

                                                       Time (seconds)
Module                                       User      System        Wall        Calls

--------------------------------------------------------------------------------------

**************************************************************************************

Host: TUF

Timers On : Thu Jul 10 17:25:23 2025
Timers Off: Thu Jul 10 17:25:31 2025

Wall Time:        7.95 seconds

                                                       Time (seconds)
Module                                       User      System        Wall        Calls

--------------------------------------------------------------------------------------

**************************************************************************************

Host: TUF

Timers On : Thu Jul 10 17:34:45 2025
Timers Off: Thu Jul 10 17:34:59 2025

Wall Time:       13.93 seconds

                                                       Time (seconds)
Module                                       User      System        Wall        Calls

--------------------------------------------------------------------------------------

**************************************************************************************

Host: TUF

Timers On : Thu Jul 10 17:35:34 2025
Timers Off: Thu Jul 10 17:35:47 2025

Wall Time:       13.57 seconds

                                                       Time (seconds)
Module                                       User      System        Wall        Calls

--------------------------------------------------------------------------------------

**************************************************************************************

Host: TUF

Timers On : Thu Jul 10 17:36:46 2025
Timers Off: Thu Jul 10 17:36:57 2025

Wall Time:       11.28 seconds

                                                       Time (seconds)
Module                                       User      System        Wall        Calls

--------------------------------------------------------------------------------------

**************************************************************************************

Host: TUF

Timers On : Thu Jul 10 17:37:17 2025
Timers Off: Thu Jul 10 17:37:29 2025

Wall Time:       12.01 seconds

                                                       Time (seconds)
Module                                       User      System        Wall        Calls

--------------------------------------------------------------------------------------

**************************************************************************************

Host: TUF

Timers On : Thu Jul 10 17:37:32 2025
Timers Off: Thu Jul 10 17:37:45 2025

Wall Time:       13.72 seconds

                                                       Time (seconds)
Module                                       User      System        Wall        Calls

--------------------------------------------------------------------------------------

**************************************************************************************

Host: TUF

Timers On : Thu Jul 10 17:38:03 2025
Timers Off: Thu Jul 10 17:38:38 2025

Wall Time:       35.08 seconds

                                                       Time (seconds)
Module                                       User      System        Wall        Calls

--------------------------------------------------------------------------------------

**************************************************************************************

Host: TUF

Timers On : Thu Jul 10 17:46:06 2025
Timers Off: Thu Jul 10 17:46:40 2025

Wall Time:       34.14 seconds

                                                       Time (seconds)
Module                                       User      System        Wall        Calls

--------------------------------------------------------------------------------------

**************************************************************************************

Host: TUF

Timers On : Thu Jul 10 17:46:57 2025
Timers Off: Thu Jul 10 17:47:54 2025

Wall Time:       56.80 seconds

                                                       Time (seconds)
Module                                       User      System        Wall        Calls

--------------------------------------------------------------------------------------

**************************************************************************************

Host: TUF

Timers On : Thu Jul 10 18:37:07 2025
Timers Off: Thu Jul 10 18:37:38 2025

Wall Time:       30.51 seconds

                                                       Time (seconds)
Module                                       User      System        Wall        Calls

--------------------------------------------------------------------------------------

**************************************************************************************

Host: TUF

Timers On : Thu Jul 10 18:38:19 2025
Timers Off: Thu Jul 10 18:38:45 2025

Wall Time:       26.49 seconds

                                                       Time (seconds)
Module                                       User      System        Wall        Calls

--------------------------------------------------------------------------------------

**************************************************************************************

Host: TUF

Timers On : Thu Jul 10 18:41:19 2025
Timers Off: Thu Jul 10 18:41:46 2025

Wall Time:       27.25 seconds

                                                       Time (seconds)
Module                                       User      System        Wall        Calls

--------------------------------------------------------------------------------------

**************************************************************************************

Host: TUF

Timers On : Thu Jul 10 19:49:47 2025
Timers Off: Thu Jul 10 19:49:50 2025

Wall Time:        3.13 seconds

                                                       Time (seconds)
Module                                       User      System        Wall        Calls

--------------------------------------------------------------------------------------

**************************************************************************************

Host: TUF

Timers On : Thu Jul 10 19:51:29 2025
Timers Off: Thu Jul 10 19:51:57 2025

Wall Time:       27.98 seconds

                                                       Time (seconds)
Module                                       User      System        Wall        Calls

--------------------------------------------------------------------------------------

**************************************************************************************
