
Host: TUF

Timers On : Fri Jul 18 15:32:57 2025
Timers Off: Fri Jul 18 15:32:57 2025

Wall Time:        0.39 seconds

                                                       Time (seconds)
Module                                       User      System        Wall        Calls

--------------------------------------------------------------------------------------

**************************************************************************************

Host: TUF

Timers On : Fri Jul 18 15:33:29 2025
Timers Off: Fri Jul 18 15:33:29 2025

Wall Time:        0.40 seconds

                                                       Time (seconds)
Module                                       User      System        Wall        Calls

--------------------------------------------------------------------------------------

**************************************************************************************

Host: TUF

Timers On : Fri Jul 18 15:33:57 2025
Timers Off: Fri Jul 18 15:33:57 2025

Wall Time:        0.41 seconds

                                                       Time (seconds)
Module                                       User      System        Wall        Calls

--------------------------------------------------------------------------------------

**************************************************************************************

Host: TUF

Timers On : Fri Jul 18 15:34:20 2025
Timers Off: Fri Jul 18 15:34:21 2025

Wall Time:        0.45 seconds

                                                       Time (seconds)
Module                                       User      System        Wall        Calls

--------------------------------------------------------------------------------------

**************************************************************************************

Host: TUF

Timers On : Fri Jul 18 15:35:08 2025
Timers Off: Fri Jul 18 15:35:23 2025

Wall Time:       15.11 seconds

                                                       Time (seconds)
Module                                       User      System        Wall        Calls

--------------------------------------------------------------------------------------

**************************************************************************************

Host: TUF

Timers On : Fri Jul 18 15:36:03 2025
Timers Off: Fri Jul 18 15:36:19 2025

Wall Time:       15.14 seconds

                                                       Time (seconds)
Module                                       User      System        Wall        Calls

--------------------------------------------------------------------------------------

**************************************************************************************

Host: TUF

Timers On : Fri Jul 18 15:36:54 2025
Timers Off: Fri Jul 18 15:37:09 2025

Wall Time:       15.27 seconds

                                                       Time (seconds)
Module                                       User      System        Wall        Calls

--------------------------------------------------------------------------------------

**************************************************************************************

Host: TUF

Timers On : Fri Aug  8 15:15:54 2025
Timers Off: Fri Aug  8 15:15:55 2025

Wall Time:        1.09 seconds

                                                       Time (seconds)
Module                                       User      System        Wall        Calls

--------------------------------------------------------------------------------------

**************************************************************************************

Host: TUF

Timers On : Fri Aug  8 15:15:58 2025
Timers Off: Fri Aug  8 15:16:14 2025

Wall Time:       15.87 seconds

                                                       Time (seconds)
Module                                       User      System        Wall        Calls

--------------------------------------------------------------------------------------

**************************************************************************************

Host: TUF

Timers On : Fri Aug  8 15:18:24 2025
Timers Off: Fri Aug  8 15:18:25 2025

Wall Time:        1.08 seconds

                                                       Time (seconds)
Module                                       User      System        Wall        Calls

--------------------------------------------------------------------------------------

**************************************************************************************

Host: TUF

Timers On : Fri Aug  8 15:18:26 2025
Timers Off: Fri Aug  8 15:18:42 2025

Wall Time:       15.93 seconds

                                                       Time (seconds)
Module                                       User      System        Wall        Calls

--------------------------------------------------------------------------------------

**************************************************************************************

Host: TUF

Timers On : Fri Aug  8 16:12:35 2025
Timers Off: Fri Aug  8 16:12:54 2025

Wall Time:       19.14 seconds

                                                       Time (seconds)
Module                                       User      System        Wall        Calls

--------------------------------------------------------------------------------------

**************************************************************************************
