
Host: TUF

Timers On : Thu Jul  3 16:17:28 2025
Timers Off: Thu Jul  3 16:17:55 2025

Wall Time:       26.93 seconds

                                                       Time (seconds)
Module                                       User      System        Wall        Calls

--------------------------------------------------------------------------------------

**************************************************************************************

Host: TUF

Timers On : Thu Jul  3 16:22:50 2025
Timers Off: Thu Jul  3 16:23:20 2025

Wall Time:       29.78 seconds

                                                       Time (seconds)
Module                                       User      System        Wall        Calls

--------------------------------------------------------------------------------------

**************************************************************************************

Host: TUF

Timers On : Thu Jul  3 16:30:29 2025
Timers Off: Thu Jul  3 16:31:00 2025

Wall Time:       31.30 seconds

                                                       Time (seconds)
Module                                       User      System        Wall        Calls

--------------------------------------------------------------------------------------

**************************************************************************************

Host: TUF

Timers On : Thu Jul  3 16:38:17 2025
Timers Off: Thu Jul  3 16:38:47 2025

Wall Time:       30.57 seconds

                                                       Time (seconds)
Module                                       User      System        Wall        Calls

--------------------------------------------------------------------------------------

**************************************************************************************

Host: TUF

Timers On : Thu Jul  3 16:51:31 2025
Timers Off: Thu Jul  3 16:51:34 2025

Wall Time:        2.19 seconds

                                                       Time (seconds)
Module                                       User      System        Wall        Calls

--------------------------------------------------------------------------------------

**************************************************************************************

Host: TUF

Timers On : Thu Jul  3 16:52:38 2025
Timers Off: Thu Jul  3 16:53:09 2025

Wall Time:       30.44 seconds

                                                       Time (seconds)
Module                                       User      System        Wall        Calls

--------------------------------------------------------------------------------------

**************************************************************************************

Host: TUF

Timers On : Thu Jul  3 16:54:17 2025
Timers Off: Thu Jul  3 16:54:47 2025

Wall Time:       30.06 seconds

                                                       Time (seconds)
Module                                       User      System        Wall        Calls

--------------------------------------------------------------------------------------

**************************************************************************************

Host: TUF

Timers On : Thu Jul  3 16:55:46 2025
Timers Off: Thu Jul  3 16:56:15 2025

Wall Time:       29.26 seconds

                                                       Time (seconds)
Module                                       User      System        Wall        Calls

--------------------------------------------------------------------------------------

**************************************************************************************

Host: TUF

Timers On : Thu Jul  3 16:57:19 2025
Timers Off: Thu Jul  3 16:57:49 2025

Wall Time:       30.57 seconds

                                                       Time (seconds)
Module                                       User      System        Wall        Calls

--------------------------------------------------------------------------------------

**************************************************************************************

Host: TUF

Timers On : Thu Jul  3 16:57:58 2025
Timers Off: Thu Jul  3 16:58:27 2025

Wall Time:       28.84 seconds

                                                       Time (seconds)
Module                                       User      System        Wall        Calls

--------------------------------------------------------------------------------------

**************************************************************************************

Host: TUF

Timers On : Thu Jul  3 16:58:28 2025
Timers Off: Thu Jul  3 16:58:58 2025

Wall Time:       30.03 seconds

                                                       Time (seconds)
Module                                       User      System        Wall        Calls

--------------------------------------------------------------------------------------

**************************************************************************************

Host: TUF

Timers On : Thu Jul  3 21:39:40 2025
Timers Off: Thu Jul  3 21:40:13 2025

Wall Time:       33.47 seconds

                                                       Time (seconds)
Module                                       User      System        Wall        Calls

--------------------------------------------------------------------------------------

**************************************************************************************

Host: TUF

Timers On : Thu Jul  3 21:40:29 2025
Timers Off: Thu Jul  3 21:41:01 2025

Wall Time:       32.91 seconds

                                                       Time (seconds)
Module                                       User      System        Wall        Calls

--------------------------------------------------------------------------------------

**************************************************************************************

Host: TUF

Timers On : Thu Jul  3 21:42:21 2025
Timers Off: Thu Jul  3 21:42:54 2025

Wall Time:       33.31 seconds

                                                       Time (seconds)
Module                                       User      System        Wall        Calls

--------------------------------------------------------------------------------------

**************************************************************************************

Host: TUF

Timers On : Thu Jul  3 21:44:10 2025
Timers Off: Thu Jul  3 21:44:43 2025

Wall Time:       33.26 seconds

                                                       Time (seconds)
Module                                       User      System        Wall        Calls

--------------------------------------------------------------------------------------

**************************************************************************************

Host: TUF

Timers On : Thu Jul  3 21:46:50 2025
Timers Off: Thu Jul  3 21:47:23 2025

Wall Time:       32.92 seconds

                                                       Time (seconds)
Module                                       User      System        Wall        Calls

--------------------------------------------------------------------------------------

**************************************************************************************

Host: TUF

Timers On : Thu Jul  3 21:48:45 2025
Timers Off: Thu Jul  3 21:49:18 2025

Wall Time:       32.89 seconds

                                                       Time (seconds)
Module                                       User      System        Wall        Calls

--------------------------------------------------------------------------------------

**************************************************************************************

Host: TUF

Timers On : Thu Jul  3 21:50:43 2025
Timers Off: Thu Jul  3 21:51:16 2025

Wall Time:       32.64 seconds

                                                       Time (seconds)
Module                                       User      System        Wall        Calls

--------------------------------------------------------------------------------------

**************************************************************************************

Host: TUF

Timers On : Thu Jul  3 21:52:01 2025
Timers Off: Thu Jul  3 21:52:34 2025

Wall Time:       32.88 seconds

                                                       Time (seconds)
Module                                       User      System        Wall        Calls

--------------------------------------------------------------------------------------

**************************************************************************************

Host: TUF

Timers On : Thu Jul  3 21:52:46 2025
Timers Off: Thu Jul  3 21:53:18 2025

Wall Time:       31.63 seconds

                                                       Time (seconds)
Module                                       User      System        Wall        Calls

--------------------------------------------------------------------------------------

**************************************************************************************

Host: TUF

Timers On : Thu Jul  3 21:54:46 2025
Timers Off: Thu Jul  3 21:55:19 2025

Wall Time:       33.48 seconds

                                                       Time (seconds)
Module                                       User      System        Wall        Calls

--------------------------------------------------------------------------------------

**************************************************************************************

Host: TUF

Timers On : Thu Jul  3 21:57:28 2025
Timers Off: Thu Jul  3 21:58:01 2025

Wall Time:       33.02 seconds

                                                       Time (seconds)
Module                                       User      System        Wall        Calls

--------------------------------------------------------------------------------------

**************************************************************************************

Host: TUF

Timers On : Thu Jul  3 22:08:50 2025
Timers Off: Thu Jul  3 22:09:24 2025

Wall Time:       33.69 seconds

                                                       Time (seconds)
Module                                       User      System        Wall        Calls

--------------------------------------------------------------------------------------

**************************************************************************************

Host: TUF

Timers On : Thu Jul  3 22:09:41 2025
Timers Off: Thu Jul  3 22:10:14 2025

Wall Time:       33.11 seconds

                                                       Time (seconds)
Module                                       User      System        Wall        Calls

--------------------------------------------------------------------------------------

**************************************************************************************

Host: TUF

Timers On : Thu Jul  3 22:12:53 2025
Timers Off: Thu Jul  3 22:13:25 2025

Wall Time:       32.81 seconds

                                                       Time (seconds)
Module                                       User      System        Wall        Calls

--------------------------------------------------------------------------------------

**************************************************************************************

Host: TUF

Timers On : Thu Jul  3 22:14:07 2025
Timers Off: Thu Jul  3 22:14:41 2025

Wall Time:       33.80 seconds

                                                       Time (seconds)
Module                                       User      System        Wall        Calls

--------------------------------------------------------------------------------------

**************************************************************************************

Host: TUF

Timers On : Sun Jul  6 13:19:39 2025
Timers Off: Sun Jul  6 13:19:42 2025

Wall Time:        2.45 seconds

                                                       Time (seconds)
Module                                       User      System        Wall        Calls

--------------------------------------------------------------------------------------

**************************************************************************************

Host: TUF

Timers On : Sun Jul  6 13:20:12 2025
Timers Off: Sun Jul  6 13:20:14 2025

Wall Time:        2.06 seconds

                                                       Time (seconds)
Module                                       User      System        Wall        Calls

--------------------------------------------------------------------------------------

**************************************************************************************

Host: TUF

Timers On : Sun Jul  6 13:20:47 2025
Timers Off: Sun Jul  6 13:20:53 2025

Wall Time:        5.75 seconds

                                                       Time (seconds)
Module                                       User      System        Wall        Calls
V: Grid                             :      0.250u      0.000s      0.160w      2 calls
build grid                          :      0.167u      0.000s      0.099w      2 calls
post-process grid                   :      0.083u      0.000s      0.058w      2 calls
DFH: sparsity prep                  :      0.033u      0.017s      0.038w      2 calls
Libint2ERI::Libint2ERI              :      0.067u      0.033s      0.053w      8 calls
DFH: initialize()                   :      0.083u      0.017s      0.072w      2 calls
DFH: AO Construction                :      0.017u      0.000s      0.013w      2 calls
DFH: AO-Met. Contraction            :      0.000u      0.000s      0.002w      2 calls
HF: Form core H                     :      0.000u      0.017s      0.008w      2 calls
HF: Form S/X                        :      0.000u      0.000s      0.001w      2 calls
HF: Guess                           :      0.167u      0.050s      0.146w      2 calls
SAD Guess                           :      0.167u      0.050s      0.138w      2 calls
HF: Form G                          :      2.350u      0.133s      1.479w     17 calls
RV: Form V                          :      2.333u      0.133s      1.468w     17 calls
Properties                          :      0.367u      0.033s      0.310w   9418 calls
Functional                          :      1.217u      0.067s      0.737w   9418 calls
V_xc                                :      0.667u      0.033s      0.374w   9418 calls
JK: D                               :      0.017u      0.000s      0.000w     17 calls
JK: USO2AO                          :      0.000u      0.000s      0.001w     17 calls
JK: JK                              :      0.000u      0.000s      0.003w     17 calls
DFH: compute_JK()                   :      0.000u      0.000s      0.002w     17 calls
DFH: Grabbing AOs                   :      0.000u      0.000s      0.000w     17 calls
DFH: compute_J                      :      0.000u      0.000s      0.002w     17 calls
JK: AO2USO                          :      0.000u      0.000s      0.000w     17 calls
HF: Form F                          :      0.000u      0.000s      0.000w     17 calls
HF: Form D                          :      0.000u      0.000s      0.000w     17 calls
HF: DIIS                            :      0.367u      0.050s      0.272w     15 calls
HF: Form C                          :      0.017u      0.000s      0.011w     15 calls
DFMP2 Singles                       :      0.000u      0.000s      0.000w      1 calls
DFMP2 Aia                           :      0.017u      0.000s      0.014w      1 calls
DFMP2 (A|mn)                        :      0.000u      0.000s      0.004w      1 calls
DFMP2 (A|mn)C_mi                    :      0.000u      0.000s      0.000w      1 calls
DFMP2 (A|mi)C_na                    :      0.000u      0.000s      0.000w      1 calls
DFMP2 Aia Write                     :      0.000u      0.000s      0.000w      1 calls
DFMP2 Bia                           :      0.017u      0.000s      0.009w      1 calls
DFMP2 Metric                        :      0.017u      0.000s      0.009w      1 calls
DFMP2 Aia Read                      :      0.000u      0.000s      0.000w      1 calls
DFMP2 (ia|A)(A|Q)                   :      0.000u      0.000s      0.000w      1 calls
DFMP2 Bia Write                     :      0.000u      0.000s      0.000w      1 calls
DFMP2 Energy                        :      0.000u      0.000s      0.000w      1 calls
DFMP2 Bia Read                      :      0.000u      0.000s      0.000w      2 calls

--------------------------------------------------------------------------------------
V: Grid                             :      0.250u      0.000s      0.160w      2 calls
| build grid                        :      0.167u      0.000s      0.099w      2 calls
| post-process grid                 :      0.083u      0.000s      0.058w      2 calls
DFH: sparsity prep                  :      0.033u      0.017s      0.038w      2 calls
| Libint2ERI::Libint2ERI            :      0.033u      0.017s      0.031w      2 calls
DFH: initialize()                   :      0.083u      0.017s      0.072w      2 calls
| Libint2ERI::Libint2ERI            :      0.017u      0.017s      0.018w      4 calls
| DFH: AO Construction              :      0.017u      0.000s      0.013w      2 calls
| DFH: AO-Met. Contraction          :      0.000u      0.000s      0.002w      2 calls
HF: Form core H                     :      0.000u      0.017s      0.008w      2 calls
HF: Form S/X                        :      0.000u      0.000s      0.001w      2 calls
HF: Guess                           :      0.167u      0.050s      0.146w      2 calls
| SAD Guess                         :      0.167u      0.050s      0.138w      2 calls
HF: Form G                          :      2.350u      0.133s      1.479w     17 calls
| RV: Form V                        :      2.333u      0.133s      1.468w     17 calls
| | Properties                      :      0.367u      0.033s      0.310w   9418 calls
| | Functional                      :      1.217u      0.067s      0.737w   9418 calls
| | V_xc                            :      0.667u      0.033s      0.374w   9418 calls
| JK: D                             :      0.017u      0.000s      0.000w     17 calls
| JK: USO2AO                        :      0.000u      0.000s      0.001w     17 calls
| JK: JK                            :      0.000u      0.000s      0.003w     17 calls
| | DFH: compute_JK()               :      0.000u      0.000s      0.002w     17 calls
| | | DFH: Grabbing AOs             :      0.000u      0.000s      0.000w     17 calls
| | | DFH: compute_J                :      0.000u      0.000s      0.002w     17 calls
| JK: AO2USO                        :      0.000u      0.000s      0.000w     17 calls
HF: Form F                          :      0.000u      0.000s      0.000w     17 calls
HF: Form D                          :      0.000u      0.000s      0.000w     17 calls
HF: DIIS                            :      0.367u      0.050s      0.272w     15 calls
HF: Form C                          :      0.017u      0.000s      0.011w     15 calls
DFMP2 Singles                       :      0.000u      0.000s      0.000w      1 calls
DFMP2 Aia                           :      0.017u      0.000s      0.014w      1 calls
| Libint2ERI::Libint2ERI            :      0.017u      0.000s      0.005w      1 calls
| DFMP2 (A|mn)                      :      0.000u      0.000s      0.004w      1 calls
| DFMP2 (A|mn)C_mi                  :      0.000u      0.000s      0.000w      1 calls
| DFMP2 (A|mi)C_na                  :      0.000u      0.000s      0.000w      1 calls
| DFMP2 Aia Write                   :      0.000u      0.000s      0.000w      1 calls
DFMP2 Bia                           :      0.017u      0.000s      0.009w      1 calls
| DFMP2 Metric                      :      0.017u      0.000s      0.009w      1 calls
| | Libint2ERI::Libint2ERI          :      0.000u      0.000s      0.000w      1 calls
| DFMP2 Aia Read                    :      0.000u      0.000s      0.000w      1 calls
| DFMP2 (ia|A)(A|Q)                 :      0.000u      0.000s      0.000w      1 calls
| DFMP2 Bia Write                   :      0.000u      0.000s      0.000w      1 calls
DFMP2 Energy                        :      0.000u      0.000s      0.000w      1 calls
| DFMP2 Bia Read                    :      0.000u      0.000s      0.000w      2 calls

**************************************************************************************

Host: TUF

Timers On : Sun Jul  6 13:25:24 2025
Timers Off: Sun Jul  6 13:25:30 2025

Wall Time:        5.66 seconds

                                                       Time (seconds)
Module                                       User      System        Wall        Calls
V: Grid                             :      0.200u      0.017s      0.127w      2 calls
build grid                          :      0.133u      0.017s      0.084w      2 calls
post-process grid                   :      0.067u      0.000s      0.042w      2 calls
DFH: sparsity prep                  :      0.017u      0.017s      0.023w      2 calls
Libint2ERI::Libint2ERI              :      0.000u      0.033s      0.034w      8 calls
DFH: initialize()                   :      0.067u      0.017s      0.054w      2 calls
DFH: AO Construction                :      0.017u      0.000s      0.010w      2 calls
DFH: AO-Met. Contraction            :      0.000u      0.000s      0.002w      2 calls
HF: Form core H                     :      0.017u      0.017s      0.006w      2 calls
HF: Form S/X                        :      0.000u      0.000s      0.001w      2 calls
HF: Guess                           :      0.133u      0.050s      0.126w      2 calls
SAD Guess                           :      0.117u      0.050s      0.121w      2 calls
HF: Form G                          :      3.033u      0.117s      1.892w     17 calls
RV: Form V                          :      3.033u      0.117s      1.881w     17 calls
Properties                          :      0.400u      0.017s      0.262w   9418 calls
Functional                          :      2.133u      0.067s      1.263w   9418 calls
V_xc                                :      0.433u      0.000s      0.316w   9418 calls
JK: D                               :      0.000u      0.000s      0.000w     17 calls
JK: USO2AO                          :      0.000u      0.000s      0.001w     17 calls
JK: JK                              :      0.000u      0.000s      0.004w     17 calls
DFH: compute_JK()                   :      0.000u      0.000s      0.003w     17 calls
DFH: Grabbing AOs                   :      0.000u      0.000s      0.000w     17 calls
DFH: compute_J                      :      0.000u      0.000s      0.001w     17 calls
DFH: compute_K                      :      0.000u      0.000s      0.001w      9 calls
JK: AO2USO                          :      0.000u      0.000s      0.000w     17 calls
HF: Form F                          :      0.000u      0.000s      0.000w     17 calls
HF: Form D                          :      0.000u      0.000s      0.000w     17 calls
HF: DIIS                            :      0.283u      0.017s      0.155w     15 calls
HF: Form C                          :      0.000u      0.000s      0.010w     15 calls
DFMP2 Singles                       :      0.000u      0.000s      0.000w      1 calls
DFMP2 Aia                           :      0.017u      0.000s      0.011w      1 calls
DFMP2 (A|mn)                        :      0.000u      0.000s      0.004w      1 calls
DFMP2 (A|mn)C_mi                    :      0.000u      0.000s      0.000w      1 calls
DFMP2 (A|mi)C_na                    :      0.000u      0.000s      0.000w      1 calls
DFMP2 Aia Write                     :      0.000u      0.000s      0.000w      1 calls
DFMP2 Bia                           :      0.017u      0.000s      0.009w      1 calls
DFMP2 Metric                        :      0.017u      0.000s      0.008w      1 calls
DFMP2 Aia Read                      :      0.000u      0.000s      0.000w      1 calls
DFMP2 (ia|A)(A|Q)                   :      0.000u      0.000s      0.000w      1 calls
DFMP2 Bia Write                     :      0.000u      0.000s      0.000w      1 calls
DFMP2 Energy                        :      0.000u      0.000s      0.001w      1 calls
DFMP2 Bia Read                      :      0.000u      0.000s      0.000w      2 calls

--------------------------------------------------------------------------------------
V: Grid                             :      0.200u      0.017s      0.127w      2 calls
| build grid                        :      0.133u      0.017s      0.084w      2 calls
| post-process grid                 :      0.067u      0.000s      0.042w      2 calls
DFH: sparsity prep                  :      0.017u      0.017s      0.023w      2 calls
| Libint2ERI::Libint2ERI            :      0.000u      0.017s      0.018w      2 calls
DFH: initialize()                   :      0.067u      0.017s      0.054w      2 calls
| Libint2ERI::Libint2ERI            :      0.000u      0.017s      0.013w      4 calls
| DFH: AO Construction              :      0.017u      0.000s      0.010w      2 calls
| DFH: AO-Met. Contraction          :      0.000u      0.000s      0.002w      2 calls
HF: Form core H                     :      0.017u      0.017s      0.006w      2 calls
HF: Form S/X                        :      0.000u      0.000s      0.001w      2 calls
HF: Guess                           :      0.133u      0.050s      0.126w      2 calls
| SAD Guess                         :      0.117u      0.050s      0.121w      2 calls
HF: Form G                          :      3.033u      0.117s      1.892w     17 calls
| RV: Form V                        :      3.033u      0.117s      1.881w     17 calls
| | Properties                      :      0.400u      0.017s      0.262w   9418 calls
| | Functional                      :      2.133u      0.067s      1.263w   9418 calls
| | V_xc                            :      0.433u      0.000s      0.316w   9418 calls
| JK: D                             :      0.000u      0.000s      0.000w     17 calls
| JK: USO2AO                        :      0.000u      0.000s      0.001w     17 calls
| JK: JK                            :      0.000u      0.000s      0.004w     17 calls
| | DFH: compute_JK()               :      0.000u      0.000s      0.003w     17 calls
| | | DFH: Grabbing AOs             :      0.000u      0.000s      0.000w     17 calls
| | | DFH: compute_J                :      0.000u      0.000s      0.001w     17 calls
| | | DFH: compute_K                :      0.000u      0.000s      0.001w      9 calls
| JK: AO2USO                        :      0.000u      0.000s      0.000w     17 calls
HF: Form F                          :      0.000u      0.000s      0.000w     17 calls
HF: Form D                          :      0.000u      0.000s      0.000w     17 calls
HF: DIIS                            :      0.283u      0.017s      0.155w     15 calls
HF: Form C                          :      0.000u      0.000s      0.010w     15 calls
DFMP2 Singles                       :      0.000u      0.000s      0.000w      1 calls
DFMP2 Aia                           :      0.017u      0.000s      0.011w      1 calls
| Libint2ERI::Libint2ERI            :      0.000u      0.000s      0.003w      1 calls
| DFMP2 (A|mn)                      :      0.000u      0.000s      0.004w      1 calls
| DFMP2 (A|mn)C_mi                  :      0.000u      0.000s      0.000w      1 calls
| DFMP2 (A|mi)C_na                  :      0.000u      0.000s      0.000w      1 calls
| DFMP2 Aia Write                   :      0.000u      0.000s      0.000w      1 calls
DFMP2 Bia                           :      0.017u      0.000s      0.009w      1 calls
| DFMP2 Metric                      :      0.017u      0.000s      0.008w      1 calls
| | Libint2ERI::Libint2ERI          :      0.000u      0.000s      0.000w      1 calls
| DFMP2 Aia Read                    :      0.000u      0.000s      0.000w      1 calls
| DFMP2 (ia|A)(A|Q)                 :      0.000u      0.000s      0.000w      1 calls
| DFMP2 Bia Write                   :      0.000u      0.000s      0.000w      1 calls
DFMP2 Energy                        :      0.000u      0.000s      0.001w      1 calls
| DFMP2 Bia Read                    :      0.000u      0.000s      0.000w      2 calls

**************************************************************************************

Host: TUF

Timers On : Sun Jul  6 13:26:30 2025
Timers Off: Sun Jul  6 13:26:32 2025

Wall Time:        2.22 seconds

                                                       Time (seconds)
Module                                       User      System        Wall        Calls

--------------------------------------------------------------------------------------

**************************************************************************************

Host: TUF

Timers On : Sun Jul  6 14:22:37 2025
Timers Off: Sun Jul  6 14:22:38 2025

Wall Time:        1.57 seconds

                                                       Time (seconds)
Module                                       User      System        Wall        Calls

--------------------------------------------------------------------------------------

**************************************************************************************

Host: TUF

Timers On : Sun Jul  6 14:23:38 2025
Timers Off: Sun Jul  6 14:23:40 2025

Wall Time:        2.01 seconds

                                                       Time (seconds)
Module                                       User      System        Wall        Calls

--------------------------------------------------------------------------------------

**************************************************************************************

Host: TUF

Timers On : Sun Jul  6 14:24:42 2025
Timers Off: Sun Jul  6 14:24:44 2025

Wall Time:        1.76 seconds

                                                       Time (seconds)
Module                                       User      System        Wall        Calls

--------------------------------------------------------------------------------------

**************************************************************************************

Host: TUF

Timers On : Sun Jul  6 14:25:51 2025
Timers Off: Sun Jul  6 14:25:55 2025

Wall Time:        4.30 seconds

                                                       Time (seconds)
Module                                       User      System        Wall        Calls
V: Grid                             :      0.200u      0.033s      0.139w      2 calls
build grid                          :      0.133u      0.017s      0.087w      2 calls
post-process grid                   :      0.067u      0.017s      0.052w      2 calls
DFH: sparsity prep                  :      0.033u      0.017s      0.018w      2 calls
Libint2ERI::Libint2ERI              :      0.033u      0.017s      0.028w      8 calls
DFH: initialize()                   :      0.033u      0.017s      0.038w      2 calls
DFH: AO Construction                :      0.000u      0.000s      0.006w      2 calls
DFH: AO-Met. Contraction            :      0.000u      0.000s      0.001w      2 calls
HF: Form core H                     :      0.000u      0.017s      0.002w      2 calls
HF: Form S/X                        :      0.000u      0.000s      0.000w      2 calls
HF: Guess                           :      0.100u      0.017s      0.072w      2 calls
SAD Guess                           :      0.083u      0.017s      0.069w      2 calls
HF: Form G                          :      2.200u      0.033s      1.393w     17 calls
RV: Form V                          :      2.200u      0.033s      1.384w     17 calls
Properties                          :      0.400u      0.000s      0.234w   9418 calls
Functional                          :      1.333u      0.033s      0.839w   9418 calls
V_xc                                :      0.367u      0.000s      0.276w   9418 calls
JK: D                               :      0.000u      0.000s      0.000w     17 calls
JK: USO2AO                          :      0.000u      0.000s      0.001w     17 calls
JK: JK                              :      0.000u      0.000s      0.003w     17 calls
DFH: compute_JK()                   :      0.000u      0.000s      0.003w     17 calls
DFH: Grabbing AOs                   :      0.000u      0.000s      0.000w     17 calls
DFH: compute_J                      :      0.000u      0.000s      0.001w     17 calls
DFH: compute_K                      :      0.000u      0.000s      0.001w      9 calls
JK: AO2USO                          :      0.000u      0.000s      0.000w     17 calls
HF: Form F                          :      0.000u      0.000s      0.000w     17 calls
HF: Form D                          :      0.000u      0.000s      0.000w     17 calls
HF: DIIS                            :      0.300u      0.067s      0.188w     15 calls
HF: Form C                          :      0.000u      0.000s      0.008w     15 calls
DFMP2 Singles                       :      0.000u      0.000s      0.000w      1 calls
DFMP2 Aia                           :      0.017u      0.000s      0.009w      1 calls
DFMP2 (A|mn)                        :      0.000u      0.000s      0.003w      1 calls
DFMP2 (A|mn)C_mi                    :      0.000u      0.000s      0.000w      1 calls
DFMP2 (A|mi)C_na                    :      0.000u      0.000s      0.000w      1 calls
DFMP2 Aia Write                     :      0.000u      0.000s      0.000w      1 calls
DFMP2 Bia                           :      0.017u      0.000s      0.008w      1 calls
DFMP2 Metric                        :      0.017u      0.000s      0.007w      1 calls
DFMP2 Aia Read                      :      0.000u      0.000s      0.000w      1 calls
DFMP2 (ia|A)(A|Q)                   :      0.000u      0.000s      0.000w      1 calls
DFMP2 Bia Write                     :      0.000u      0.000s      0.000w      1 calls
DFMP2 Energy                        :      0.000u      0.000s      0.000w      1 calls
DFMP2 Bia Read                      :      0.000u      0.000s      0.000w      2 calls

--------------------------------------------------------------------------------------
V: Grid                             :      0.200u      0.033s      0.139w      2 calls
| build grid                        :      0.133u      0.017s      0.087w      2 calls
| post-process grid                 :      0.067u      0.017s      0.052w      2 calls
DFH: sparsity prep                  :      0.033u      0.017s      0.018w      2 calls
| Libint2ERI::Libint2ERI            :      0.017u      0.017s      0.014w      2 calls
DFH: initialize()                   :      0.033u      0.017s      0.038w      2 calls
| Libint2ERI::Libint2ERI            :      0.017u      0.000s      0.011w      4 calls
| DFH: AO Construction              :      0.000u      0.000s      0.006w      2 calls
| DFH: AO-Met. Contraction          :      0.000u      0.000s      0.001w      2 calls
HF: Form core H                     :      0.000u      0.017s      0.002w      2 calls
HF: Form S/X                        :      0.000u      0.000s      0.000w      2 calls
HF: Guess                           :      0.100u      0.017s      0.072w      2 calls
| SAD Guess                         :      0.083u      0.017s      0.069w      2 calls
HF: Form G                          :      2.200u      0.033s      1.393w     17 calls
| RV: Form V                        :      2.200u      0.033s      1.384w     17 calls
| | Properties                      :      0.400u      0.000s      0.234w   9418 calls
| | Functional                      :      1.333u      0.033s      0.839w   9418 calls
| | V_xc                            :      0.367u      0.000s      0.276w   9418 calls
| JK: D                             :      0.000u      0.000s      0.000w     17 calls
| JK: USO2AO                        :      0.000u      0.000s      0.001w     17 calls
| JK: JK                            :      0.000u      0.000s      0.003w     17 calls
| | DFH: compute_JK()               :      0.000u      0.000s      0.003w     17 calls
| | | DFH: Grabbing AOs             :      0.000u      0.000s      0.000w     17 calls
| | | DFH: compute_J                :      0.000u      0.000s      0.001w     17 calls
| | | DFH: compute_K                :      0.000u      0.000s      0.001w      9 calls
| JK: AO2USO                        :      0.000u      0.000s      0.000w     17 calls
HF: Form F                          :      0.000u      0.000s      0.000w     17 calls
HF: Form D                          :      0.000u      0.000s      0.000w     17 calls
HF: DIIS                            :      0.300u      0.067s      0.188w     15 calls
HF: Form C                          :      0.000u      0.000s      0.008w     15 calls
DFMP2 Singles                       :      0.000u      0.000s      0.000w      1 calls
DFMP2 Aia                           :      0.017u      0.000s      0.009w      1 calls
| Libint2ERI::Libint2ERI            :      0.000u      0.000s      0.002w      1 calls
| DFMP2 (A|mn)                      :      0.000u      0.000s      0.003w      1 calls
| DFMP2 (A|mn)C_mi                  :      0.000u      0.000s      0.000w      1 calls
| DFMP2 (A|mi)C_na                  :      0.000u      0.000s      0.000w      1 calls
| DFMP2 Aia Write                   :      0.000u      0.000s      0.000w      1 calls
DFMP2 Bia                           :      0.017u      0.000s      0.008w      1 calls
| DFMP2 Metric                      :      0.017u      0.000s      0.007w      1 calls
| | Libint2ERI::Libint2ERI          :      0.000u      0.000s      0.000w      1 calls
| DFMP2 Aia Read                    :      0.000u      0.000s      0.000w      1 calls
| DFMP2 (ia|A)(A|Q)                 :      0.000u      0.000s      0.000w      1 calls
| DFMP2 Bia Write                   :      0.000u      0.000s      0.000w      1 calls
DFMP2 Energy                        :      0.000u      0.000s      0.000w      1 calls
| DFMP2 Bia Read                    :      0.000u      0.000s      0.000w      2 calls

**************************************************************************************

Host: TUF

Timers On : Sun Jul  6 14:27:15 2025
Timers Off: Sun Jul  6 14:27:21 2025

Wall Time:        5.81 seconds

                                                       Time (seconds)
Module                                       User      System        Wall        Calls
V: Grid                             :      0.333u      0.033s      0.212w      3 calls
build grid                          :      0.217u      0.017s      0.128w      3 calls
post-process grid                   :      0.117u      0.017s      0.083w      3 calls
DFH: sparsity prep                  :      0.050u      0.017s      0.033w      3 calls
Libint2ERI::Libint2ERI              :      0.033u      0.033s      0.045w     11 calls
DFH: initialize()                   :      0.100u      0.033s      0.070w      3 calls
DFH: AO Construction                :      0.033u      0.000s      0.012w      3 calls
DFH: AO-Met. Contraction            :      0.000u      0.000s      0.002w      3 calls
HF: Form core H                     :      0.000u      0.000s      0.008w      3 calls
HF: Form S/X                        :      0.000u      0.000s      0.001w      3 calls
HF: Guess                           :      0.167u      0.067s      0.152w      3 calls
SAD Guess                           :      0.167u      0.067s      0.146w      3 calls
HF: Form G                          :      3.467u      0.133s      2.167w     26 calls
RV: Form V                          :      3.450u      0.133s      2.153w     26 calls
Properties                          :      0.550u      0.000s      0.355w  14404 calls
Functional                          :      1.983u      0.083s      1.331w  14404 calls
V_xc                                :      0.783u      0.050s      0.415w  14404 calls
JK: D                               :      0.000u      0.000s      0.000w     26 calls
JK: USO2AO                          :      0.000u      0.000s      0.001w     26 calls
JK: JK                              :      0.017u      0.000s      0.005w     26 calls
DFH: compute_JK()                   :      0.017u      0.000s      0.004w     26 calls
DFH: Grabbing AOs                   :      0.000u      0.000s      0.000w     26 calls
DFH: compute_J                      :      0.000u      0.000s      0.002w     26 calls
DFH: compute_K                      :      0.017u      0.000s      0.002w     18 calls
JK: AO2USO                          :      0.000u      0.000s      0.000w     26 calls
HF: Form F                          :      0.000u      0.000s      0.000w     26 calls
HF: Form D                          :      0.000u      0.000s      0.000w     26 calls
HF: DIIS                            :      0.283u      0.033s      0.167w     23 calls
HF: Form C                          :      0.017u      0.000s      0.011w     23 calls
DFMP2 Singles                       :      0.000u      0.000s      0.000w      1 calls
DFMP2 Aia                           :      0.017u      0.000s      0.008w      1 calls
DFMP2 (A|mn)                        :      0.000u      0.000s      0.003w      1 calls
DFMP2 (A|mn)C_mi                    :      0.000u      0.000s      0.000w      1 calls
DFMP2 (A|mi)C_na                    :      0.000u      0.000s      0.000w      1 calls
DFMP2 Aia Write                     :      0.000u      0.000s      0.000w      1 calls
DFMP2 Bia                           :      0.000u      0.000s      0.007w      1 calls
DFMP2 Metric                        :      0.000u      0.000s      0.006w      1 calls
DFMP2 Aia Read                      :      0.000u      0.000s      0.000w      1 calls
DFMP2 (ia|A)(A|Q)                   :      0.000u      0.000s      0.000w      1 calls
DFMP2 Bia Write                     :      0.000u      0.000s      0.000w      1 calls
DFMP2 Energy                        :      0.000u      0.000s      0.000w      1 calls
DFMP2 Bia Read                      :      0.000u      0.000s      0.000w      2 calls

--------------------------------------------------------------------------------------
V: Grid                             :      0.333u      0.033s      0.212w      3 calls
| build grid                        :      0.217u      0.017s      0.128w      3 calls
| post-process grid                 :      0.117u      0.017s      0.083w      3 calls
DFH: sparsity prep                  :      0.050u      0.017s      0.033w      3 calls
| Libint2ERI::Libint2ERI            :      0.017u      0.017s      0.024w      3 calls
DFH: initialize()                   :      0.100u      0.033s      0.070w      3 calls
| Libint2ERI::Libint2ERI            :      0.017u      0.017s      0.019w      6 calls
| DFH: AO Construction              :      0.033u      0.000s      0.012w      3 calls
| DFH: AO-Met. Contraction          :      0.000u      0.000s      0.002w      3 calls
HF: Form core H                     :      0.000u      0.000s      0.008w      3 calls
HF: Form S/X                        :      0.000u      0.000s      0.001w      3 calls
HF: Guess                           :      0.167u      0.067s      0.152w      3 calls
| SAD Guess                         :      0.167u      0.067s      0.146w      3 calls
HF: Form G                          :      3.467u      0.133s      2.167w     26 calls
| RV: Form V                        :      3.450u      0.133s      2.153w     26 calls
| | Properties                      :      0.550u      0.000s      0.355w  14404 calls
| | Functional                      :      1.983u      0.083s      1.331w  14404 calls
| | V_xc                            :      0.783u      0.050s      0.415w  14404 calls
| JK: D                             :      0.000u      0.000s      0.000w     26 calls
| JK: USO2AO                        :      0.000u      0.000s      0.001w     26 calls
| JK: JK                            :      0.017u      0.000s      0.005w     26 calls
| | DFH: compute_JK()               :      0.017u      0.000s      0.004w     26 calls
| | | DFH: Grabbing AOs             :      0.000u      0.000s      0.000w     26 calls
| | | DFH: compute_J                :      0.000u      0.000s      0.002w     26 calls
| | | DFH: compute_K                :      0.017u      0.000s      0.002w     18 calls
| JK: AO2USO                        :      0.000u      0.000s      0.000w     26 calls
HF: Form F                          :      0.000u      0.000s      0.000w     26 calls
HF: Form D                          :      0.000u      0.000s      0.000w     26 calls
HF: DIIS                            :      0.283u      0.033s      0.167w     23 calls
HF: Form C                          :      0.017u      0.000s      0.011w     23 calls
DFMP2 Singles                       :      0.000u      0.000s      0.000w      1 calls
DFMP2 Aia                           :      0.017u      0.000s      0.008w      1 calls
| Libint2ERI::Libint2ERI            :      0.000u      0.000s      0.002w      1 calls
| DFMP2 (A|mn)                      :      0.000u      0.000s      0.003w      1 calls
| DFMP2 (A|mn)C_mi                  :      0.000u      0.000s      0.000w      1 calls
| DFMP2 (A|mi)C_na                  :      0.000u      0.000s      0.000w      1 calls
| DFMP2 Aia Write                   :      0.000u      0.000s      0.000w      1 calls
DFMP2 Bia                           :      0.000u      0.000s      0.007w      1 calls
| DFMP2 Metric                      :      0.000u      0.000s      0.006w      1 calls
| | Libint2ERI::Libint2ERI          :      0.000u      0.000s      0.000w      1 calls
| DFMP2 Aia Read                    :      0.000u      0.000s      0.000w      1 calls
| DFMP2 (ia|A)(A|Q)                 :      0.000u      0.000s      0.000w      1 calls
| DFMP2 Bia Write                   :      0.000u      0.000s      0.000w      1 calls
DFMP2 Energy                        :      0.000u      0.000s      0.000w      1 calls
| DFMP2 Bia Read                    :      0.000u      0.000s      0.000w      2 calls

**************************************************************************************

Host: TUF

Timers On : Sun Jul  6 14:31:13 2025
Timers Off: Sun Jul  6 14:31:20 2025

Wall Time:        6.93 seconds

                                                       Time (seconds)
Module                                       User      System        Wall        Calls
V: Grid                             :      0.250u      0.033s      0.167w      3 calls
build grid                          :      0.167u      0.017s      0.098w      3 calls
post-process grid                   :      0.083u      0.017s      0.069w      3 calls
DFH: sparsity prep                  :      0.067u      0.033s      0.048w      3 calls
Libint2ERI::Libint2ERI              :      0.033u      0.050s      0.061w     11 calls
DFH: initialize()                   :      0.133u      0.017s      0.088w      3 calls
DFH: AO Construction                :      0.033u      0.000s      0.018w      3 calls
DFH: AO-Met. Contraction            :      0.000u      0.000s      0.003w      3 calls
HF: Form core H                     :      0.000u      0.000s      0.011w      3 calls
HF: Form S/X                        :      0.000u      0.000s      0.001w      3 calls
HF: Guess                           :      0.233u      0.050s      0.162w      3 calls
SAD Guess                           :      0.233u      0.050s      0.156w      3 calls
HF: Form G                          :      4.367u      0.183s      2.732w     26 calls
RV: Form V                          :      4.333u      0.183s      2.714w     26 calls
Properties                          :      0.733u      0.033s      0.428w  14404 calls
Functional                          :      2.783u      0.067s      1.703w  14404 calls
V_xc                                :      0.650u      0.067s      0.518w  14404 calls
JK: D                               :      0.000u      0.000s      0.000w     26 calls
JK: USO2AO                          :      0.000u      0.000s      0.001w     26 calls
JK: JK                              :      0.033u      0.000s      0.006w     26 calls
DFH: compute_JK()                   :      0.033u      0.000s      0.006w     26 calls
DFH: Grabbing AOs                   :      0.000u      0.000s      0.000w     26 calls
DFH: compute_J                      :      0.000u      0.000s      0.002w     26 calls
DFH: compute_K                      :      0.017u      0.000s      0.003w     18 calls
JK: AO2USO                          :      0.000u      0.000s      0.000w     26 calls
HF: Form F                          :      0.000u      0.000s      0.000w     26 calls
HF: Form D                          :      0.000u      0.000s      0.000w     26 calls
HF: DIIS                            :      0.417u      0.033s      0.268w     23 calls
HF: Form C                          :      0.033u      0.000s      0.015w     23 calls
DFMP2 Singles                       :      0.000u      0.000s      0.000w      1 calls
DFMP2 Aia                           :      0.000u      0.000s      0.008w      1 calls
DFMP2 (A|mn)                        :      0.000u      0.000s      0.003w      1 calls
DFMP2 (A|mn)C_mi                    :      0.000u      0.000s      0.000w      1 calls
DFMP2 (A|mi)C_na                    :      0.000u      0.000s      0.000w      1 calls
DFMP2 Aia Write                     :      0.000u      0.000s      0.000w      1 calls
DFMP2 Bia                           :      0.017u      0.000s      0.006w      1 calls
DFMP2 Metric                        :      0.017u      0.000s      0.006w      1 calls
DFMP2 Aia Read                      :      0.000u      0.000s      0.000w      1 calls
DFMP2 (ia|A)(A|Q)                   :      0.000u      0.000s      0.000w      1 calls
DFMP2 Bia Write                     :      0.000u      0.000s      0.000w      1 calls
DFMP2 Energy                        :      0.000u      0.000s      0.000w      1 calls
DFMP2 Bia Read                      :      0.000u      0.000s      0.000w      2 calls

--------------------------------------------------------------------------------------
V: Grid                             :      0.250u      0.033s      0.167w      3 calls
| build grid                        :      0.167u      0.017s      0.098w      3 calls
| post-process grid                 :      0.083u      0.017s      0.069w      3 calls
DFH: sparsity prep                  :      0.067u      0.033s      0.048w      3 calls
| Libint2ERI::Libint2ERI            :      0.017u      0.033s      0.036w      3 calls
DFH: initialize()                   :      0.133u      0.017s      0.088w      3 calls
| Libint2ERI::Libint2ERI            :      0.017u      0.017s      0.023w      6 calls
| DFH: AO Construction              :      0.033u      0.000s      0.018w      3 calls
| DFH: AO-Met. Contraction          :      0.000u      0.000s      0.003w      3 calls
HF: Form core H                     :      0.000u      0.000s      0.011w      3 calls
HF: Form S/X                        :      0.000u      0.000s      0.001w      3 calls
HF: Guess                           :      0.233u      0.050s      0.162w      3 calls
| SAD Guess                         :      0.233u      0.050s      0.156w      3 calls
HF: Form G                          :      4.367u      0.183s      2.732w     26 calls
| RV: Form V                        :      4.333u      0.183s      2.714w     26 calls
| | Properties                      :      0.733u      0.033s      0.428w  14404 calls
| | Functional                      :      2.783u      0.067s      1.703w  14404 calls
| | V_xc                            :      0.650u      0.067s      0.518w  14404 calls
| JK: D                             :      0.000u      0.000s      0.000w     26 calls
| JK: USO2AO                        :      0.000u      0.000s      0.001w     26 calls
| JK: JK                            :      0.033u      0.000s      0.006w     26 calls
| | DFH: compute_JK()               :      0.033u      0.000s      0.006w     26 calls
| | | DFH: Grabbing AOs             :      0.000u      0.000s      0.000w     26 calls
| | | DFH: compute_J                :      0.000u      0.000s      0.002w     26 calls
| | | DFH: compute_K                :      0.017u      0.000s      0.003w     18 calls
| JK: AO2USO                        :      0.000u      0.000s      0.000w     26 calls
HF: Form F                          :      0.000u      0.000s      0.000w     26 calls
HF: Form D                          :      0.000u      0.000s      0.000w     26 calls
HF: DIIS                            :      0.417u      0.033s      0.268w     23 calls
HF: Form C                          :      0.033u      0.000s      0.015w     23 calls
DFMP2 Singles                       :      0.000u      0.000s      0.000w      1 calls
DFMP2 Aia                           :      0.000u      0.000s      0.008w      1 calls
| Libint2ERI::Libint2ERI            :      0.000u      0.000s      0.002w      1 calls
| DFMP2 (A|mn)                      :      0.000u      0.000s      0.003w      1 calls
| DFMP2 (A|mn)C_mi                  :      0.000u      0.000s      0.000w      1 calls
| DFMP2 (A|mi)C_na                  :      0.000u      0.000s      0.000w      1 calls
| DFMP2 Aia Write                   :      0.000u      0.000s      0.000w      1 calls
DFMP2 Bia                           :      0.017u      0.000s      0.006w      1 calls
| DFMP2 Metric                      :      0.017u      0.000s      0.006w      1 calls
| | Libint2ERI::Libint2ERI          :      0.000u      0.000s      0.000w      1 calls
| DFMP2 Aia Read                    :      0.000u      0.000s      0.000w      1 calls
| DFMP2 (ia|A)(A|Q)                 :      0.000u      0.000s      0.000w      1 calls
| DFMP2 Bia Write                   :      0.000u      0.000s      0.000w      1 calls
DFMP2 Energy                        :      0.000u      0.000s      0.000w      1 calls
| DFMP2 Bia Read                    :      0.000u      0.000s      0.000w      2 calls

**************************************************************************************

Host: TUF

Timers On : Sun Jul  6 14:32:31 2025
Timers Off: Sun Jul  6 14:32:35 2025

Wall Time:        4.34 seconds

                                                       Time (seconds)
Module                                       User      System        Wall        Calls
V: Grid                             :      0.150u      0.017s      0.106w      2 calls
build grid                          :      0.083u      0.000s      0.063w      2 calls
post-process grid                   :      0.067u      0.017s      0.043w      2 calls
DFH: sparsity prep                  :      0.033u      0.017s      0.020w      2 calls
Libint2ERI::Libint2ERI              :      0.033u      0.033s      0.025w      6 calls
DFH: initialize()                   :      0.033u      0.017s      0.033w      2 calls
DFH: AO Construction                :      0.000u      0.000s      0.006w      2 calls
DFH: AO-Met. Contraction            :      0.000u      0.000s      0.001w      2 calls
HF: Form core H                     :      0.000u      0.000s      0.006w      2 calls
HF: Form S/X                        :      0.000u      0.000s      0.001w      2 calls
HF: Guess                           :      0.133u      0.050s      0.104w      2 calls
SAD Guess                           :      0.133u      0.050s      0.099w      2 calls
HF: Form G                          :      2.000u      0.083s      1.225w     16 calls
RV: Form V                          :      1.967u      0.083s      1.216w     16 calls
Properties                          :      0.383u      0.017s      0.211w   8864 calls
Functional                          :      1.083u      0.017s      0.723w   8864 calls
V_xc                                :      0.417u      0.017s      0.250w   8864 calls
JK: D                               :      0.000u      0.000s      0.000w     16 calls
JK: USO2AO                          :      0.000u      0.000s      0.000w     16 calls
JK: JK                              :      0.000u      0.000s      0.002w     16 calls
DFH: compute_JK()                   :      0.000u      0.000s      0.002w     16 calls
DFH: Grabbing AOs                   :      0.000u      0.000s      0.000w     16 calls
DFH: compute_J                      :      0.000u      0.000s      0.001w     16 calls
DFH: compute_K                      :      0.000u      0.000s      0.001w      8 calls
JK: AO2USO                          :      0.000u      0.000s      0.000w     16 calls
HF: Form F                          :      0.000u      0.000s      0.000w     16 calls
HF: Form D                          :      0.000u      0.000s      0.000w     16 calls
HF: DIIS                            :      0.183u      0.017s      0.128w     14 calls
HF: Form C                          :      0.000u      0.000s      0.007w     14 calls

--------------------------------------------------------------------------------------
V: Grid                             :      0.150u      0.017s      0.106w      2 calls
| build grid                        :      0.083u      0.000s      0.063w      2 calls
| post-process grid                 :      0.067u      0.017s      0.043w      2 calls
DFH: sparsity prep                  :      0.033u      0.017s      0.020w      2 calls
| Libint2ERI::Libint2ERI            :      0.033u      0.017s      0.016w      2 calls
DFH: initialize()                   :      0.033u      0.017s      0.033w      2 calls
| Libint2ERI::Libint2ERI            :      0.000u      0.017s      0.010w      4 calls
| DFH: AO Construction              :      0.000u      0.000s      0.006w      2 calls
| DFH: AO-Met. Contraction          :      0.000u      0.000s      0.001w      2 calls
HF: Form core H                     :      0.000u      0.000s      0.006w      2 calls
HF: Form S/X                        :      0.000u      0.000s      0.001w      2 calls
HF: Guess                           :      0.133u      0.050s      0.104w      2 calls
| SAD Guess                         :      0.133u      0.050s      0.099w      2 calls
HF: Form G                          :      2.000u      0.083s      1.225w     16 calls
| RV: Form V                        :      1.967u      0.083s      1.216w     16 calls
| | Properties                      :      0.383u      0.017s      0.211w   8864 calls
| | Functional                      :      1.083u      0.017s      0.723w   8864 calls
| | V_xc                            :      0.417u      0.017s      0.250w   8864 calls
| JK: D                             :      0.000u      0.000s      0.000w     16 calls
| JK: USO2AO                        :      0.000u      0.000s      0.000w     16 calls
| JK: JK                            :      0.000u      0.000s      0.002w     16 calls
| | DFH: compute_JK()               :      0.000u      0.000s      0.002w     16 calls
| | | DFH: Grabbing AOs             :      0.000u      0.000s      0.000w     16 calls
| | | DFH: compute_J                :      0.000u      0.000s      0.001w     16 calls
| | | DFH: compute_K                :      0.000u      0.000s      0.001w      8 calls
| JK: AO2USO                        :      0.000u      0.000s      0.000w     16 calls
HF: Form F                          :      0.000u      0.000s      0.000w     16 calls
HF: Form D                          :      0.000u      0.000s      0.000w     16 calls
HF: DIIS                            :      0.183u      0.017s      0.128w     14 calls
HF: Form C                          :      0.000u      0.000s      0.007w     14 calls

**************************************************************************************

Host: TUF

Timers On : Sun Jul  6 14:38:14 2025
Timers Off: Sun Jul  6 14:38:18 2025

Wall Time:        4.83 seconds

                                                       Time (seconds)
Module                                       User      System        Wall        Calls
V: Grid                             :      0.133u      0.017s      0.096w      1 calls
build grid                          :      0.067u      0.017s      0.053w      1 calls
post-process grid                   :      0.067u      0.000s      0.042w      1 calls
DFH: sparsity prep                  :      0.017u      0.017s      0.015w      1 calls
Libint2ERI::Libint2ERI              :      0.017u      0.017s      0.024w      5 calls
DFH: initialize()                   :      0.033u      0.000s      0.024w      1 calls
DFH: AO Construction                :      0.017u      0.000s      0.003w      1 calls
DFH: AO-Met. Contraction            :      0.000u      0.000s      0.001w      1 calls
HF: Form core H                     :      0.000u      0.000s      0.002w      1 calls
HF: Form S/X                        :      0.000u      0.000s      0.000w      1 calls
HF: Guess                           :      0.050u      0.033s      0.049w      1 calls
SAD Guess                           :      0.050u      0.033s      0.047w      1 calls
HF: Form G                          :      2.800u      0.100s      1.743w     10 calls
RV: Form V                          :      2.783u      0.100s      1.734w     10 calls
Properties                          :      0.417u      0.033s      0.279w   5540 calls
Functional                          :      1.617u      0.067s      1.096w   5540 calls
V_xc                                :      0.717u      0.000s      0.318w   5540 calls
JK: D                               :      0.000u      0.000s      0.000w     10 calls
JK: USO2AO                          :      0.000u      0.000s      0.001w     10 calls
JK: JK                              :      0.017u      0.000s      0.004w     10 calls
DFH: compute_JK()                   :      0.017u      0.000s      0.004w     10 calls
DFH: Grabbing AOs                   :      0.000u      0.000s      0.000w     10 calls
DFH: compute_J                      :      0.000u      0.000s      0.001w     10 calls
DFH: compute_K                      :      0.017u      0.000s      0.002w     10 calls
JK: AO2USO                          :      0.000u      0.000s      0.000w     10 calls
HF: Form F                          :      0.000u      0.000s      0.000w     10 calls
HF: Form D                          :      0.000u      0.000s      0.000w     10 calls
HF: DIIS                            :      0.317u      0.033s      0.216w      9 calls
HF: Form C                          :      0.017u      0.000s      0.009w      9 calls
DFMP2 Singles                       :      0.000u      0.000s      0.000w      1 calls
DFMP2 Aia                           :      0.017u      0.000s      0.011w      1 calls
DFMP2 (A|mn)                        :      0.000u      0.000s      0.004w      1 calls
DFMP2 (A|mn)C_mi                    :      0.000u      0.000s      0.000w      1 calls
DFMP2 (A|mi)C_na                    :      0.000u      0.000s      0.000w      1 calls
DFMP2 Aia Write                     :      0.000u      0.000s      0.000w      1 calls
DFMP2 Bia                           :      0.017u      0.000s      0.009w      1 calls
DFMP2 Metric                        :      0.017u      0.000s      0.008w      1 calls
DFMP2 Aia Read                      :      0.000u      0.000s      0.000w      1 calls
DFMP2 (ia|A)(A|Q)                   :      0.000u      0.000s      0.000w      1 calls
DFMP2 Bia Write                     :      0.000u      0.000s      0.000w      1 calls
DFMP2 Energy                        :      0.000u      0.000s      0.001w      1 calls
DFMP2 Bia Read                      :      0.000u      0.000s      0.000w      2 calls

--------------------------------------------------------------------------------------
V: Grid                             :      0.133u      0.017s      0.096w      1 calls
| build grid                        :      0.067u      0.017s      0.053w      1 calls
| post-process grid                 :      0.067u      0.000s      0.042w      1 calls
DFH: sparsity prep                  :      0.017u      0.017s      0.015w      1 calls
| Libint2ERI::Libint2ERI            :      0.017u      0.017s      0.013w      1 calls
DFH: initialize()                   :      0.033u      0.000s      0.024w      1 calls
| Libint2ERI::Libint2ERI            :      0.000u      0.000s      0.008w      2 calls
| DFH: AO Construction              :      0.017u      0.000s      0.003w      1 calls
| DFH: AO-Met. Contraction          :      0.000u      0.000s      0.001w      1 calls
HF: Form core H                     :      0.000u      0.000s      0.002w      1 calls
HF: Form S/X                        :      0.000u      0.000s      0.000w      1 calls
HF: Guess                           :      0.050u      0.033s      0.049w      1 calls
| SAD Guess                         :      0.050u      0.033s      0.047w      1 calls
HF: Form G                          :      2.800u      0.100s      1.743w     10 calls
| RV: Form V                        :      2.783u      0.100s      1.734w     10 calls
| | Properties                      :      0.417u      0.033s      0.279w   5540 calls
| | Functional                      :      1.617u      0.067s      1.096w   5540 calls
| | V_xc                            :      0.717u      0.000s      0.318w   5540 calls
| JK: D                             :      0.000u      0.000s      0.000w     10 calls
| JK: USO2AO                        :      0.000u      0.000s      0.001w     10 calls
| JK: JK                            :      0.017u      0.000s      0.004w     10 calls
| | DFH: compute_JK()               :      0.017u      0.000s      0.004w     10 calls
| | | DFH: Grabbing AOs             :      0.000u      0.000s      0.000w     10 calls
| | | DFH: compute_J                :      0.000u      0.000s      0.001w     10 calls
| | | DFH: compute_K                :      0.017u      0.000s      0.002w     10 calls
| JK: AO2USO                        :      0.000u      0.000s      0.000w     10 calls
HF: Form F                          :      0.000u      0.000s      0.000w     10 calls
HF: Form D                          :      0.000u      0.000s      0.000w     10 calls
HF: DIIS                            :      0.317u      0.033s      0.216w      9 calls
HF: Form C                          :      0.017u      0.000s      0.009w      9 calls
DFMP2 Singles                       :      0.000u      0.000s      0.000w      1 calls
DFMP2 Aia                           :      0.017u      0.000s      0.011w      1 calls
| Libint2ERI::Libint2ERI            :      0.000u      0.000s      0.003w      1 calls
| DFMP2 (A|mn)                      :      0.000u      0.000s      0.004w      1 calls
| DFMP2 (A|mn)C_mi                  :      0.000u      0.000s      0.000w      1 calls
| DFMP2 (A|mi)C_na                  :      0.000u      0.000s      0.000w      1 calls
| DFMP2 Aia Write                   :      0.000u      0.000s      0.000w      1 calls
DFMP2 Bia                           :      0.017u      0.000s      0.009w      1 calls
| DFMP2 Metric                      :      0.017u      0.000s      0.008w      1 calls
| | Libint2ERI::Libint2ERI          :      0.000u      0.000s      0.000w      1 calls
| DFMP2 Aia Read                    :      0.000u      0.000s      0.000w      1 calls
| DFMP2 (ia|A)(A|Q)                 :      0.000u      0.000s      0.000w      1 calls
| DFMP2 Bia Write                   :      0.000u      0.000s      0.000w      1 calls
DFMP2 Energy                        :      0.000u      0.000s      0.001w      1 calls
| DFMP2 Bia Read                    :      0.000u      0.000s      0.000w      2 calls

**************************************************************************************

Host: TUF

Timers On : Sun Jul  6 14:40:23 2025
Timers Off: Sun Jul  6 14:40:30 2025

Wall Time:        6.91 seconds

                                                       Time (seconds)
Module                                       User      System        Wall        Calls
V: Grid                             :      0.300u      0.033s      0.203w      3 calls
build grid                          :      0.200u      0.017s      0.132w      3 calls
post-process grid                   :      0.100u      0.017s      0.071w      3 calls
DFH: sparsity prep                  :      0.033u      0.017s      0.029w      3 calls
Libint2ERI::Libint2ERI              :      0.017u      0.033s      0.040w     11 calls
DFH: initialize()                   :      0.083u      0.017s      0.066w      3 calls
DFH: AO Construction                :      0.017u      0.000s      0.013w      3 calls
DFH: AO-Met. Contraction            :      0.000u      0.000s      0.003w      3 calls
HF: Form core H                     :      0.000u      0.000s      0.010w      3 calls
HF: Form S/X                        :      0.000u      0.000s      0.001w      3 calls
HF: Guess                           :      0.217u      0.033s      0.142w      3 calls
SAD Guess                           :      0.183u      0.033s      0.135w      3 calls
HF: Form G                          :      5.150u      0.133s      3.161w     26 calls
RV: Form V                          :      5.067u      0.133s      3.141w     26 calls
Properties                          :      0.883u      0.033s      0.522w  14404 calls
Functional                          :      3.183u      0.083s      1.931w  14404 calls
V_xc                                :      0.900u      0.017s      0.610w  14404 calls
JK: D                               :      0.000u      0.000s      0.000w     26 calls
JK: USO2AO                          :      0.017u      0.000s      0.002w     26 calls
JK: JK                              :      0.033u      0.000s      0.007w     26 calls
DFH: compute_JK()                   :      0.033u      0.000s      0.007w     26 calls
DFH: Grabbing AOs                   :      0.000u      0.000s      0.000w     26 calls
DFH: compute_J                      :      0.017u      0.000s      0.003w     26 calls
DFH: compute_K                      :      0.017u      0.000s      0.003w     18 calls
JK: AO2USO                          :      0.000u      0.000s      0.001w     26 calls
HF: Form F                          :      0.000u      0.000s      0.000w     26 calls
HF: Form D                          :      0.000u      0.000s      0.000w     26 calls
HF: DIIS                            :      0.417u      0.017s      0.239w     23 calls
HF: Form C                          :      0.017u      0.000s      0.018w     23 calls
DFMP2 Singles                       :      0.000u      0.000s      0.000w      1 calls
DFMP2 Aia                           :      0.017u      0.000s      0.007w      1 calls
DFMP2 (A|mn)                        :      0.000u      0.000s      0.002w      1 calls
DFMP2 (A|mn)C_mi                    :      0.000u      0.000s      0.000w      1 calls
DFMP2 (A|mi)C_na                    :      0.000u      0.000s      0.000w      1 calls
DFMP2 Aia Write                     :      0.000u      0.000s      0.000w      1 calls
DFMP2 Bia                           :      0.000u      0.000s      0.006w      1 calls
DFMP2 Metric                        :      0.000u      0.000s      0.005w      1 calls
DFMP2 Aia Read                      :      0.000u      0.000s      0.000w      1 calls
DFMP2 (ia|A)(A|Q)                   :      0.000u      0.000s      0.000w      1 calls
DFMP2 Bia Write                     :      0.000u      0.000s      0.000w      1 calls
DFMP2 Energy                        :      0.000u      0.000s      0.000w      1 calls
DFMP2 Bia Read                      :      0.000u      0.000s      0.000w      2 calls

--------------------------------------------------------------------------------------
V: Grid                             :      0.300u      0.033s      0.203w      3 calls
| build grid                        :      0.200u      0.017s      0.132w      3 calls
| post-process grid                 :      0.100u      0.017s      0.071w      3 calls
DFH: sparsity prep                  :      0.033u      0.017s      0.029w      3 calls
| Libint2ERI::Libint2ERI            :      0.000u      0.017s      0.021w      3 calls
DFH: initialize()                   :      0.083u      0.017s      0.066w      3 calls
| Libint2ERI::Libint2ERI            :      0.017u      0.017s      0.017w      6 calls
| DFH: AO Construction              :      0.017u      0.000s      0.013w      3 calls
| DFH: AO-Met. Contraction          :      0.000u      0.000s      0.003w      3 calls
HF: Form core H                     :      0.000u      0.000s      0.010w      3 calls
HF: Form S/X                        :      0.000u      0.000s      0.001w      3 calls
HF: Guess                           :      0.217u      0.033s      0.142w      3 calls
| SAD Guess                         :      0.183u      0.033s      0.135w      3 calls
HF: Form G                          :      5.150u      0.133s      3.161w     26 calls
| RV: Form V                        :      5.067u      0.133s      3.141w     26 calls
| | Properties                      :      0.883u      0.033s      0.522w  14404 calls
| | Functional                      :      3.183u      0.083s      1.931w  14404 calls
| | V_xc                            :      0.900u      0.017s      0.610w  14404 calls
| JK: D                             :      0.000u      0.000s      0.000w     26 calls
| JK: USO2AO                        :      0.017u      0.000s      0.002w     26 calls
| JK: JK                            :      0.033u      0.000s      0.007w     26 calls
| | DFH: compute_JK()               :      0.033u      0.000s      0.007w     26 calls
| | | DFH: Grabbing AOs             :      0.000u      0.000s      0.000w     26 calls
| | | DFH: compute_J                :      0.017u      0.000s      0.003w     26 calls
| | | DFH: compute_K                :      0.017u      0.000s      0.003w     18 calls
| JK: AO2USO                        :      0.000u      0.000s      0.001w     26 calls
HF: Form F                          :      0.000u      0.000s      0.000w     26 calls
HF: Form D                          :      0.000u      0.000s      0.000w     26 calls
HF: DIIS                            :      0.417u      0.017s      0.239w     23 calls
HF: Form C                          :      0.017u      0.000s      0.018w     23 calls
DFMP2 Singles                       :      0.000u      0.000s      0.000w      1 calls
DFMP2 Aia                           :      0.017u      0.000s      0.007w      1 calls
| Libint2ERI::Libint2ERI            :      0.000u      0.000s      0.002w      1 calls
| DFMP2 (A|mn)                      :      0.000u      0.000s      0.002w      1 calls
| DFMP2 (A|mn)C_mi                  :      0.000u      0.000s      0.000w      1 calls
| DFMP2 (A|mi)C_na                  :      0.000u      0.000s      0.000w      1 calls
| DFMP2 Aia Write                   :      0.000u      0.000s      0.000w      1 calls
DFMP2 Bia                           :      0.000u      0.000s      0.006w      1 calls
| DFMP2 Metric                      :      0.000u      0.000s      0.005w      1 calls
| | Libint2ERI::Libint2ERI          :      0.000u      0.000s      0.000w      1 calls
| DFMP2 Aia Read                    :      0.000u      0.000s      0.000w      1 calls
| DFMP2 (ia|A)(A|Q)                 :      0.000u      0.000s      0.000w      1 calls
| DFMP2 Bia Write                   :      0.000u      0.000s      0.000w      1 calls
DFMP2 Energy                        :      0.000u      0.000s      0.000w      1 calls
| DFMP2 Bia Read                    :      0.000u      0.000s      0.000w      2 calls

**************************************************************************************

Host: TUF

Timers On : Sun Jul  6 14:51:10 2025
Timers Off: Sun Jul  6 14:51:17 2025

Wall Time:        6.41 seconds

                                                       Time (seconds)
Module                                       User      System        Wall        Calls
V: Grid                             :      0.283u      0.033s      0.182w      3 calls
build grid                          :      0.183u      0.017s      0.109w      3 calls
post-process grid                   :      0.100u      0.017s      0.073w      3 calls
DFH: sparsity prep                  :      0.033u      0.033s      0.031w      3 calls
Libint2ERI::Libint2ERI              :      0.017u      0.050s      0.043w     11 calls
DFH: initialize()                   :      0.067u      0.017s      0.063w      3 calls
DFH: AO Construction                :      0.017u      0.000s      0.011w      3 calls
DFH: AO-Met. Contraction            :      0.000u      0.000s      0.002w      3 calls
HF: Form core H                     :      0.000u      0.000s      0.004w      3 calls
HF: Form S/X                        :      0.017u      0.000s      0.001w      3 calls
HF: Guess                           :      0.150u      0.050s      0.130w      3 calls
SAD Guess                           :      0.150u      0.050s      0.125w      3 calls
HF: Form G                          :      3.950u      0.133s      2.433w     26 calls
RV: Form V                          :      3.950u      0.133s      2.417w     26 calls
Properties                          :      0.733u      0.000s      0.396w  14404 calls
Functional                          :      2.400u      0.100s      1.492w  14404 calls
V_xc                                :      0.800u      0.017s      0.470w  14404 calls
JK: D                               :      0.000u      0.000s      0.000w     26 calls
JK: USO2AO                          :      0.000u      0.000s      0.001w     26 calls
JK: JK                              :      0.000u      0.000s      0.005w     26 calls
DFH: compute_JK()                   :      0.000u      0.000s      0.005w     26 calls
DFH: Grabbing AOs                   :      0.000u      0.000s      0.000w     26 calls
DFH: compute_J                      :      0.000u      0.000s      0.002w     26 calls
DFH: compute_K                      :      0.000u      0.000s      0.002w     18 calls
JK: AO2USO                          :      0.000u      0.000s      0.000w     26 calls
HF: Form F                          :      0.000u      0.000s      0.000w     26 calls
HF: Form D                          :      0.000u      0.000s      0.000w     26 calls
HF: DIIS                            :      0.383u      0.033s      0.264w     23 calls
HF: Form C                          :      0.000u      0.000s      0.015w     23 calls
DFMP2 Singles                       :      0.000u      0.000s      0.000w      1 calls
DFMP2 Aia                           :      0.017u      0.000s      0.007w      1 calls
DFMP2 (A|mn)                        :      0.017u      0.000s      0.002w      1 calls
DFMP2 (A|mn)C_mi                    :      0.000u      0.000s      0.000w      1 calls
DFMP2 (A|mi)C_na                    :      0.000u      0.000s      0.000w      1 calls
DFMP2 Aia Write                     :      0.000u      0.000s      0.000w      1 calls
DFMP2 Bia                           :      0.000u      0.000s      0.006w      1 calls
DFMP2 Metric                        :      0.000u      0.000s      0.005w      1 calls
DFMP2 Aia Read                      :      0.000u      0.000s      0.000w      1 calls
DFMP2 (ia|A)(A|Q)                   :      0.000u      0.000s      0.000w      1 calls
DFMP2 Bia Write                     :      0.000u      0.000s      0.000w      1 calls
DFMP2 Energy                        :      0.000u      0.000s      0.000w      1 calls
DFMP2 Bia Read                      :      0.000u      0.000s      0.000w      2 calls

[...]
DFMP2 Bia                           :      0.000u      0.000s      0.011w      2 calls
| DFMP2 Metric                      :      0.000u      0.000s      0.010w      2 calls
| | Libint2ERI::Libint2ERI          :      0.000u      0.000s      0.000w      2 calls
| DFMP2 Aia Read                    :      0.000u      0.000s      0.000w      2 calls
| DFMP2 (ia|A)(A|Q)                 :      0.000u      0.000s      0.000w      2 calls
| DFMP2 Bia Write                   :      0.000u      0.000s      0.000w      2 calls
DFMP2 Energy                        :      0.017u      0.000s      0.001w      2 calls
| DFMP2 Bia Read                    :      0.000u      0.000s      0.000w      4 calls

**************************************************************************************

Host: TUF

Timers On : Sun Jul  6 15:28:24 2025
Timers Off: Sun Jul  6 15:28:32 2025

Wall Time:        7.71 seconds

                                                       Time (seconds)
Module                                       User      System        Wall        Calls
V: Grid                             :      0.283u      0.017s      0.187w      3 calls
build grid                          :      0.200u      0.000s      0.120w      3 calls
post-process grid                   :      0.083u      0.017s      0.067w      3 calls
DFH: sparsity prep                  :      0.033u      0.017s      0.027w      3 calls
Libint2ERI::Libint2ERI              :      0.033u      0.017s      0.036w     13 calls
DFH: initialize()                   :      0.050u      0.017s      0.050w      3 calls
DFH: AO Construction                :      0.000u      0.000s      0.010w      3 calls
DFH: AO-Met. Contraction            :      0.000u      0.017s      0.002w      3 calls
HF: Form core H                     :      0.017u      0.017s      0.007w      3 calls
HF: Form S/X                        :      0.000u      0.000s      0.001w      3 calls
HF: Guess                           :      0.200u      0.033s      0.133w      3 calls
SAD Guess                           :      0.200u      0.033s      0.127w      3 calls
HF: Form G                          :      6.817u      0.117s      4.139w     26 calls
RV: Form V                          :      6.767u      0.117s      4.123w     26 calls
Properties                          :      1.417u      0.050s      0.782w  14404 calls
Functional                          :      4.150u      0.067s      2.451w  14404 calls
V_xc                                :      1.150u      0.000s      0.837w  14404 calls
JK: D                               :      0.000u      0.000s      0.000w     26 calls
JK: USO2AO                          :      0.000u      0.000s      0.001w     26 calls
JK: JK                              :      0.033u      0.000s      0.006w     26 calls
DFH: compute_JK()                   :      0.033u      0.000s      0.006w     26 calls
DFH: Grabbing AOs                   :      0.000u      0.000s      0.000w     26 calls
DFH: compute_J                      :      0.000u      0.000s      0.002w     26 calls
DFH: compute_K                      :      0.033u      0.000s      0.003w     26 calls
JK: AO2USO                          :      0.000u      0.000s      0.000w     26 calls
HF: Form F                          :      0.000u      0.000s      0.000w     26 calls
HF: Form D                          :      0.000u      0.000s      0.000w     26 calls
HF: DIIS                            :      0.333u      0.033s      0.226w     23 calls
HF: Form C                          :      0.000u      0.000s      0.012w     23 calls
DFMP2 Singles                       :      0.000u      0.000s      0.000w      2 calls
DFMP2 Aia                           :      0.017u      0.000s      0.012w      2 calls
DFMP2 (A|mn)                        :      0.017u      0.000s      0.004w      2 calls
DFMP2 (A|mn)C_mi                    :      0.000u      0.000s      0.000w      2 calls
DFMP2 (A|mi)C_na                    :      0.000u      0.000s      0.000w      2 calls
DFMP2 Aia Write                     :      0.000u      0.000s      0.000w      2 calls
DFMP2 Bia                           :      0.017u      0.000s      0.011w      2 calls
DFMP2 Metric                        :      0.017u      0.000s      0.010w      2 calls
DFMP2 Aia Read                      :      0.000u      0.000s      0.000w      2 calls
DFMP2 (ia|A)(A|Q)                   :      0.000u      0.000s      0.000w      2 calls
DFMP2 Bia Write                     :      0.000u      0.000s      0.000w      2 calls
DFMP2 Energy                        :      0.000u      0.000s      0.001w      2 calls
DFMP2 Bia Read                      :      0.000u      0.000s      0.000w      4 calls

--------------------------------------------------------------------------------------
V: Grid                             :      0.283u      0.017s      0.187w      3 calls
| build grid                        :      0.200u      0.000s      0.120w      3 calls
| post-process grid                 :      0.083u      0.017s      0.067w      3 calls
DFH: sparsity prep                  :      0.033u      0.017s      0.027w      3 calls
| Libint2ERI::Libint2ERI            :      0.017u      0.017s      0.020w      3 calls
DFH: initialize()                   :      0.050u      0.017s      0.050w      3 calls
| Libint2ERI::Libint2ERI            :      0.017u      0.000s      0.013w      6 calls
| DFH: AO Construction              :      0.000u      0.000s      0.010w      3 calls
| DFH: AO-Met. Contraction          :      0.000u      0.017s      0.002w      3 calls
HF: Form core H                     :      0.017u      0.017s      0.007w      3 calls
HF: Form S/X                        :      0.000u      0.000s      0.001w      3 calls
HF: Guess                           :      0.200u      0.033s      0.133w      3 calls
| SAD Guess                         :      0.200u      0.033s      0.127w      3 calls
HF: Form G                          :      6.817u      0.117s      4.139w     26 calls
| RV: Form V                        :      6.767u      0.117s      4.123w     26 calls
| | Properties                      :      1.417u      0.050s      0.782w  14404 calls
| | Functional                      :      4.150u      0.067s      2.451w  14404 calls
| | V_xc                            :      1.150u      0.000s      0.837w  14404 calls
| JK: D                             :      0.000u      0.000s      0.000w     26 calls
| JK: USO2AO                        :      0.000u      0.000s      0.001w     26 calls
| JK: JK                            :      0.033u      0.000s      0.006w     26 calls
| | DFH: compute_JK()               :      0.033u      0.000s      0.006w     26 calls
| | | DFH: Grabbing AOs             :      0.000u      0.000s      0.000w     26 calls
| | | DFH: compute_J                :      0.000u      0.000s      0.002w     26 calls
| | | DFH: compute_K                :      0.033u      0.000s      0.003w     26 calls
| JK: AO2USO                        :      0.000u      0.000s      0.000w     26 calls
HF: Form F                          :      0.000u      0.000s      0.000w     26 calls
HF: Form D                          :      0.000u      0.000s      0.000w     26 calls
HF: DIIS                            :      0.333u      0.033s      0.226w     23 calls
HF: Form C                          :      0.000u      0.000s      0.012w     23 calls
DFMP2 Singles                       :      0.000u      0.000s      0.000w      2 calls
DFMP2 Aia                           :      0.017u      0.000s      0.012w      2 calls
| Libint2ERI::Libint2ERI            :      0.000u      0.000s      0.004w      2 calls
| DFMP2 (A|mn)                      :      0.017u      0.000s      0.004w      2 calls
| DFMP2 (A|mn)C_mi                  :      0.000u      0.000s      0.000w      2 calls
| DFMP2 (A|mi)C_na                  :      0.000u      0.000s      0.000w      2 calls
| DFMP2 Aia Write                   :      0.000u      0.000s      0.000w      2 calls
DFMP2 Bia                           :      0.017u      0.000s      0.011w      2 calls
| DFMP2 Metric                      :      0.017u      0.000s      0.010w      2 calls
| | Libint2ERI::Libint2ERI          :      0.000u      0.000s      0.000w      2 calls
| DFMP2 Aia Read                    :      0.000u      0.000s      0.000w      2 calls
| DFMP2 (ia|A)(A|Q)                 :      0.000u      0.000s      0.000w      2 calls
| DFMP2 Bia Write                   :      0.000u      0.000s      0.000w      2 calls
DFMP2 Energy                        :      0.000u      0.000s      0.001w      2 calls
| DFMP2 Bia Read                    :      0.000u      0.000s      0.000w      4 calls

**************************************************************************************

Host: TUF

Timers On : Sun Jul  6 19:29:30 2025
Timers Off: Sun Jul  6 19:29:33 2025

Wall Time:        2.55 seconds

                                                       Time (seconds)
Module                                       User      System        Wall        Calls
V: Grid                             :      0.100u      0.017s      0.061w      3 calls
build grid                          :      0.083u      0.017s      0.037w      3 calls
post-process grid                   :      0.017u      0.000s      0.023w      3 calls
DFH: sparsity prep                  :      0.017u      0.000s      0.015w      3 calls
Libint2ERI::Libint2ERI              :      0.017u      0.017s      0.018w      9 calls
DFH: initialize()                   :      0.017u      0.017s      0.023w      3 calls
DFH: AO Construction                :      0.017u      0.000s      0.004w      3 calls
DFH: AO-Met. Contraction            :      0.000u      0.000s      0.001w      3 calls
HF: Form core H                     :      0.000u      0.000s      0.008w      3 calls
HF: Form S/X                        :      0.000u      0.000s      0.000w      3 calls
HF: Guess                           :      0.100u      0.017s      0.059w      3 calls
SAD Guess                           :      0.100u      0.017s      0.056w      3 calls
HF: Form G                          :      1.883u      0.050s      1.134w     26 calls
RV: Form V                          :      1.867u      0.050s      1.126w     26 calls
Properties                          :      0.300u      0.000s      0.172w  14404 calls
Functional                          :      1.167u      0.017s      0.740w  14404 calls
V_xc                                :      0.350u      0.033s      0.190w  14404 calls
JK: D                               :      0.000u      0.000s      0.000w     26 calls
JK: USO2AO                          :      0.000u      0.000s      0.001w     26 calls
JK: JK                              :      0.000u      0.000s      0.003w     26 calls
DFH: compute_JK()                   :      0.000u      0.000s      0.002w     26 calls
DFH: Grabbing AOs                   :      0.000u      0.000s      0.000w     26 calls
DFH: compute_J                      :      0.000u      0.000s      0.001w     26 calls
DFH: compute_K                      :      0.000u      0.000s      0.001w     18 calls
JK: AO2USO                          :      0.000u      0.000s      0.000w     26 calls
HF: Form F                          :      0.000u      0.000s      0.000w     26 calls
HF: Form D                          :      0.000u      0.000s      0.000w     26 calls
HF: DIIS                            :      0.117u      0.017s      0.087w     23 calls
HF: Form C                          :      0.000u      0.000s      0.006w     23 calls

--------------------------------------------------------------------------------------
V: Grid                             :      0.100u      0.017s      0.061w      3 calls
| build grid                        :      0.083u      0.017s      0.037w      3 calls
| post-process grid                 :      0.017u      0.000s      0.023w      3 calls
DFH: sparsity prep                  :      0.017u      0.000s      0.015w      3 calls
| Libint2ERI::Libint2ERI            :      0.017u      0.000s      0.011w      3 calls
DFH: initialize()                   :      0.017u      0.017s      0.023w      3 calls
| Libint2ERI::Libint2ERI            :      0.000u      0.017s      0.006w      6 calls
| DFH: AO Construction              :      0.017u      0.000s      0.004w      3 calls
| DFH: AO-Met. Contraction          :      0.000u      0.000s      0.001w      3 calls
HF: Form core H                     :      0.000u      0.000s      0.008w      3 calls
HF: Form S/X                        :      0.000u      0.000s      0.000w      3 calls
HF: Guess                           :      0.100u      0.017s      0.059w      3 calls
| SAD Guess                         :      0.100u      0.017s      0.056w      3 calls
HF: Form G                          :      1.883u      0.050s      1.134w     26 calls
| RV: Form V                        :      1.867u      0.050s      1.126w     26 calls
| | Properties                      :      0.300u      0.000s      0.172w  14404 calls
| | Functional                      :      1.167u      0.017s      0.740w  14404 calls
| | V_xc                            :      0.350u      0.033s      0.190w  14404 calls
| JK: D                             :      0.000u      0.000s      0.000w     26 calls
| JK: USO2AO                        :      0.000u      0.000s      0.001w     26 calls
| JK: JK                            :      0.000u      0.000s      0.003w     26 calls
| | DFH: compute_JK()               :      0.000u      0.000s      0.002w     26 calls
| | | DFH: Grabbing AOs             :      0.000u      0.000s      0.000w     26 calls
| | | DFH: compute_J                :      0.000u      0.000s      0.001w     26 calls
| | | DFH: compute_K                :      0.000u      0.000s      0.001w     18 calls
| JK: AO2USO                        :      0.000u      0.000s      0.000w     26 calls
HF: Form F                          :      0.000u      0.000s      0.000w     26 calls
HF: Form D                          :      0.000u      0.000s      0.000w     26 calls
HF: DIIS                            :      0.117u      0.017s      0.087w     23 calls
HF: Form C                          :      0.000u      0.000s      0.006w     23 calls

**************************************************************************************

Host: TUF

Timers On : Sun Jul  6 19:33:16 2025
Timers Off: Sun Jul  6 19:33:19 2025

Wall Time:        3.33 seconds

                                                       Time (seconds)
Module                                       User      System        Wall        Calls
V: Grid                             :      0.150u      0.017s      0.088w      4 calls
build grid                          :      0.083u      0.000s      0.053w      4 calls
post-process grid                   :      0.067u      0.017s      0.034w      4 calls
DFH: sparsity prep                  :      0.017u      0.017s      0.019w      4 calls
Libint2ERI::Libint2ERI              :      0.017u      0.033s      0.024w     12 calls
DFH: initialize()                   :      0.050u      0.017s      0.030w      4 calls
DFH: AO Construction                :      0.000u      0.000s      0.005w      4 calls
DFH: AO-Met. Contraction            :      0.000u      0.000s      0.001w      4 calls
HF: Form core H                     :      0.017u      0.000s      0.012w      4 calls
HF: Form S/X                        :      0.000u      0.000s      0.000w      4 calls
HF: Guess                           :      0.067u      0.000s      0.074w      4 calls
SAD Guess                           :      0.067u      0.000s      0.070w      4 calls
HF: Form G                          :      2.683u      0.083s      1.680w     36 calls
RV: Form V                          :      2.650u      0.083s      1.671w     36 calls
Properties                          :      0.333u      0.017s      0.233w  19944 calls
Functional                          :      1.800u      0.050s      1.142w  19944 calls
V_xc                                :      0.450u      0.017s      0.264w  19944 calls
JK: D                               :      0.000u      0.000s      0.000w     36 calls
JK: USO2AO                          :      0.000u      0.000s      0.001w     36 calls
JK: JK                              :      0.017u      0.000s      0.003w     36 calls
DFH: compute_JK()                   :      0.017u      0.000s      0.003w     36 calls
DFH: Grabbing AOs                   :      0.000u      0.000s      0.000w     36 calls
DFH: compute_J                      :      0.000u      0.000s      0.001w     36 calls
DFH: compute_K                      :      0.017u      0.000s      0.002w     28 calls
JK: AO2USO                          :      0.000u      0.000s      0.000w     36 calls
HF: Form F                          :      0.000u      0.000s      0.000w     36 calls
HF: Form D                          :      0.000u      0.000s      0.000w     36 calls
HF: DIIS                            :      0.167u      0.033s      0.096w     32 calls
HF: Form C                          :      0.000u      0.000s      0.008w     32 calls

--------------------------------------------------------------------------------------
V: Grid                             :      0.150u      0.017s      0.088w      4 calls
| build grid                        :      0.083u      0.000s      0.053w      4 calls
| post-process grid                 :      0.067u      0.017s      0.034w      4 calls
DFH: sparsity prep                  :      0.017u      0.017s      0.019w      4 calls
| Libint2ERI::Libint2ERI            :      0.000u      0.017s      0.015w      4 calls
DFH: initialize()                   :      0.050u      0.017s      0.030w      4 calls
| Libint2ERI::Libint2ERI            :      0.017u      0.017s      0.009w      8 calls
| DFH: AO Construction              :      0.000u      0.000s      0.005w      4 calls
| DFH: AO-Met. Contraction          :      0.000u      0.000s      0.001w      4 calls
HF: Form core H                     :      0.017u      0.000s      0.012w      4 calls
HF: Form S/X                        :      0.000u      0.000s      0.000w      4 calls
HF: Guess                           :      0.067u      0.000s      0.074w      4 calls
| SAD Guess                         :      0.067u      0.000s      0.070w      4 calls
HF: Form G                          :      2.683u      0.083s      1.680w     36 calls
| RV: Form V                        :      2.650u      0.083s      1.671w     36 calls
| | Properties                      :      0.333u      0.017s      0.233w  19944 calls
| | Functional                      :      1.800u      0.050s      1.142w  19944 calls
| | V_xc                            :      0.450u      0.017s      0.264w  19944 calls
| JK: D                             :      0.000u      0.000s      0.000w     36 calls
| JK: USO2AO                        :      0.000u      0.000s      0.001w     36 calls
| JK: JK                            :      0.017u      0.000s      0.003w     36 calls
| | DFH: compute_JK()               :      0.017u      0.000s      0.003w     36 calls
| | | DFH: Grabbing AOs             :      0.000u      0.000s      0.000w     36 calls
| | | DFH: compute_J                :      0.000u      0.000s      0.001w     36 calls
| | | DFH: compute_K                :      0.017u      0.000s      0.002w     28 calls
| JK: AO2USO                        :      0.000u      0.000s      0.000w     36 calls
HF: Form F                          :      0.000u      0.000s      0.000w     36 calls
HF: Form D                          :      0.000u      0.000s      0.000w     36 calls
HF: DIIS                            :      0.167u      0.033s      0.096w     32 calls
HF: Form C                          :      0.000u      0.000s      0.008w     32 calls

**************************************************************************************
