
Host: TUF

Timers On : Wed Jun 18 12:50:39 2025
Timers Off: Wed Jun 18 12:50:40 2025

Wall Time:        1.69 seconds

                                                       Time (seconds)
Module                                       User      System        Wall        Calls

--------------------------------------------------------------------------------------

**************************************************************************************

Host: TUF

Timers On : Wed Jun 18 12:51:17 2025
Timers Off: Wed Jun 18 12:51:18 2025

Wall Time:        1.52 seconds

                                                       Time (seconds)
Module                                       User      System        Wall        Calls

--------------------------------------------------------------------------------------

**************************************************************************************

Host: TUF

Timers On : Wed Jun 18 12:54:02 2025
Timers Off: Wed Jun 18 12:54:04 2025

Wall Time:        1.49 seconds

                                                       Time (seconds)
Module                                       User      System        Wall        Calls

--------------------------------------------------------------------------------------

**************************************************************************************

Host: TUF

Timers On : Wed Jun 18 12:54:43 2025
Timers Off: Wed Jun 18 12:54:44 2025

Wall Time:        1.51 seconds

                                                       Time (seconds)
Module                                       User      System        Wall        Calls

--------------------------------------------------------------------------------------

**************************************************************************************

Host: TUF

Timers On : Wed Jun 18 12:55:22 2025
Timers Off: Wed Jun 18 12:55:24 2025

Wall Time:        1.51 seconds

                                                       Time (seconds)
Module                                       User      System        Wall        Calls

--------------------------------------------------------------------------------------

**************************************************************************************

Host: TUF

Timers On : Wed Jun 18 12:56:23 2025
Timers Off: Wed Jun 18 12:56:25 2025

Wall Time:        1.47 seconds

                                                       Time (seconds)
Module                                       User      System        Wall        Calls

--------------------------------------------------------------------------------------

**************************************************************************************
